# vtk DataFile Version 3.0
vtk output
ASCII
DATASET UNSTRUCTURED_GRID
POINTS 5955 double
-0.605248 -0.756764 0
-0.564024 -0.748624 0
-0.559291 -0.72209 0
-0.631899 -0.606237 0
-0.631977 -0.606231 0
-0.646 -0.63893 0
-0.605248 -0.756764 0
-0.559291 -0.72209 0
-0.50981 -0.642322 0
-0.513896 -0.593269 0
-0.529323 -0.588993 0
-0.531697 -0.588998 0
-0.631899 -0.606237 0
-0.559291 -0.72209 0
-0.579363 -1.9455 0
-0.581803 -1.95037 0
-0.581799 -1.9505 0
-0.530326 -2 0
-0.51771 -2 0
-0.438911 -1.95054 0
-0.441622 -1.93445 0
-0.452596 -1.926 0
-0.579363 -1.9455 0
-0.604608 -0.490535 0
-0.649348 -0.588508 0
-0.631977 -0.606231 0
-0.631899 -0.606237 0
-0.531697 -0.588998 0
-0.604608 -0.490535 0
-0.51771 -2 0
-0.403441 -2 0
-0.438911 -1.95054 0
-0.51771 -2 0
-0.579363 -1.9455 0
-0.452596 -1.926 0
-0.502654 -1.82867 0
-0.567129 -1.87512 0
-0.579363 -1.9455 0
-0.674018 -0.421489 0
-0.600308 -0.434904 0
-0.566076 -0.42561 0
-0.549382 -0.415777 0
-0.54957 -0.414588 0
-0.603386 -0.261085 0
-0.623161 -0.256649 0
-0.627519 -0.257715 0
-0.674018 -0.421489 0
-0.649348 -0.588508 0
-0.604608 -0.490535 0
-0.600308 -0.434904 0
-0.674018 -0.421489 0
-0.692933 -0.426461 0
-0.711279 -0.558189 0
-0.649348 -0.588508 0
-0.452596 -1.926 0
-0.441622 -1.93445 0
-0.368765 -1.87232 0
-0.353929 -1.8515 0
-0.359364 -1.77863 0
-0.360707 -1.77731 0
-0.39103 -1.77338 0
-0.476094 -1.77152 0
-0.502654 -1.82867 0
-0.452596 -1.926 0
-0.531697 -0.588998 0
-0.529323 -0.588993 0
-0.566076 -0.42561 0
-0.600308 -0.434904 0
-0.604608 -0.490535 0
-0.531697 -0.588998 0
-0.77378 -0.294133 0
-0.736347 -0.411221 0
-0.722502 -0.412551 0
-0.714574 -0.248164 0
-0.750273 -0.243764 0
-0.767403 -0.24981 0
-0.77378 -0.294133 0
-0.438911 -1.95054 0
-0.403441 -2 0
-0.360473 -2 0
-0.368765 -1.87232 0
-0.441622 -1.93445 0
-0.438911 -1.95054 0
-0.699299 -0.244602 0
-0.627519 -0.257715 0
-0.623161 -0.256649 0
-0.622961 -0.254099 0
-0.623562 -0.0880406 0
-0.662552 -0.0812009 0
-0.68759 -0.0866885 0
-0.699299 -0.244602 0
-0.360473 -2 0
-0.338922 -2 0
-0.281374 -1.93789 0
-0.284727 -1.92486 0
-0.353929 -1.8515 0
-0.368765 -1.87232 0
-0.360473 -2 0
-0.722502 -0.412551 0
-0.692933 -0.426461 0
-0.674018 -0.421489 0
-0.627519 -0.257715 0
-0.699299 -0.244602 0
-0.714574 -0.248164 0
-0.722502 -0.412551 0
-0.489119 -1.72971 0
-0.443418 -1.61219 0
-0.527073 -1.59752 0
-0.541636 -1.61578 0
-0.489119 -1.72971 0
-0.750273 -0.243764 0
-0.714574 -0.248164 0
-0.699299 -0.244602 0
-0.68759 -0.0866885 0
-0.699529 -0.0842878 0
-0.757524 -0.0755689 0
-0.780802 -0.0876032 0
-0.750273 -0.243764 0
-0.489119 -1.72971 0
-0.488771 -1.75728 0
-0.476094 -1.77152 0
-0.39103 -1.77338 0
-0.434535 -1.60822 0
-0.443418 -1.61219 0
-0.489119 -1.72971 0
-0.757524 -0.0755689 0
-0.699529 -0.0842878 0
-0.699529 0.0822765 0
-0.708018 0.0842001 0
-0.757524 0.0765777 0
-0.757524 -0.0755689 0
0.159014 -0.734613 0
0.198902 -0.739017 0
0.187853 -0.585816 0
0.176065 -0.585919 0
0.123481 -0.606585 0
0.159014 -0.734613 0
0.478476 -1.81458 0
0.492613 -1.95105 0
0.519391 -1.95661 0
0.571006 -1.89677 0
0.486059 -1.81171 0
0.478476 -1.81458 0
-0.699529 -0.0842878 0
-0.68759 -0.0866885 0
-0.662552 -0.0812009 0
-0.662552 0.0757879 0
-0.699529 0.0822765 0
-0.699529 -0.0842878 0
0.425756 -2 0
0.555675 -2 0
0.519391 -1.95661 0
0.492613 -1.95105 0
0.448911 -1.97096 0
0.425756 -2 0
-0.622961 -0.254099 0
-0.538229 -0.086817 0
-0.603925 -0.08308 0
-0.623562 -0.0880406 0
-0.622961 -0.254099 0
0.519391 -1.95661 0
0.555675 -2 0
0.56877 -2 0
0.616691 -1.95326 0
0.601381 -1.89731 0
0.571006 -1.89677 0
0.519391 -1.95661 0
-0.527073 -1.59752 0
-0.443418 -1.61219 0
-0.434535 -1.60822 0
-0.389644 -1.57708 0
-0.382996 -1.56275 0
-0.385834 -1.55697 0
-0.407006 -1.53524 0
-0.533041 -1.5099 0
-0.536943 -1.51534 0
-0.527073 -1.59752 0
0.187853 -0.585816 0
0.198902 -0.739017 0
0.215363 -0.745533 0
0.271186 -0.740618 0
0.272505 -0.73923 0
0.209356 -0.581268 0
0.187853 -0.585816 0
-0.499647 -0.256298 0
-0.541321 -0.246467 0
-0.603386 -0.261085 0
-0.54957 -0.414588 0
-0.499647 -0.256298 0
0.56877 -2 0
0.688808 -2 0
0.688609 -1.98091 0
0.616691 -1.95326 0
0.56877 -2 0
-0.434535 -1.60822 0
-0.39103 -1.77338 0
-0.360707 -1.77731 0
-0.343681 -1.71084 0
-0.389644 -1.57708 0
-0.434535 -1.60822 0
-0.622961 -0.254099 0
-0.623161 -0.256649 0
-0.603386 -0.261085 0
-0.541321 -0.246467 0
-0.535374 -0.0867485 0
-0.538229 -0.086817 0
-0.622961 -0.254099 0
0.609488 -1.88956 0
0.714028 -1.94264 0
0.736245 -1.92071 0
0.736362 -1.91972 0
0.663284 -1.84055 0
0.630538 -1.85554 0
0.609488 -1.88956 0
-0.343681 -1.71084 0
-0.240293 -1.62354 0
-0.246146 -1.60337 0
-0.347056 -1.56198 0
-0.382996 -1.56275 0
-0.389644 -1.57708 0
-0.343681 -1.71084 0
0.616691 -1.95326 0
0.688609 -1.98091 0
0.714028 -1.94264 0
0.609488 -1.88956 0
0.601381 -1.89731 0
0.616691 -1.95326 0
-0.662552 -0.0812009 0
-0.623562 -0.0880406 0
-0.603925 -0.08308 0
-0.603925 0.0848238 0
-0.615141 0.0869121 0
-0.662552 0.0757879 0
-0.662552 -0.0812009 0
0.214534 -0.262275 0
0.187634 -0.409558 0
0.291752 -0.422349 0
0.292282 -0.422181 0
0.219074 -0.26184 0
0.214534 -0.262275 0
0.512062 -1.78663 0
0.486059 -1.81171 0
0.571006 -1.89677 0
0.601381 -1.89731 0
0.609488 -1.88956 0
0.630538 -1.85554 0
0.538973 -1.77315 0
0.512062 -1.78663 0
-0.603925 -0.08308 0
-0.538229 -0.086817 0
-0.535374 -0.0867485 0
-0.534673 -0.0864501 0
-0.534673 0.0760528 0
-0.570596 0.0867579 0
-0.576817 0.0877392 0
-0.603925 0.0848238 0
-0.603925 -0.08308 0
0.176065 -0.585919 0
0.187853 -0.585816 0
0.209356 -0.581268 0
0.214873 -0.577813 0
0.220437 -0.55146 0
0.163757 -0.41662 0
0.143808 -0.417158 0
0.118459 -0.426994 0
0.117669 -0.439554 0
0.176065 -0.585919 0
-0.359364 -1.77863 0
-0.353929 -1.8515 0
-0.284727 -1.92486 0
-0.221224 -1.85221 0
-0.226603 -1.80987 0
-0.287133 -1.78094 0
-0.359364 -1.77863 0
-0.48834 -1.29792 0
-0.506001 -1.4287 0
-0.456869 -1.42582 0
-0.413496 -1.30915 0
-0.424193 -1.27715 0
-0.48834 -1.29792 0
-0.284727 -1.92486 0
-0.281374 -1.93789 0
-0.226206 -1.96461 0
-0.169524 -1.92742 0
-0.166472 -1.90616 0
-0.221224 -1.85221 0
-0.284727 -1.92486 0
0.538973 -1.77315 0
0.630538 -1.85554 0
0.663284 -1.84055 0
0.698237 -1.7529 0
0.597712 -1.72252 0
0.58563 -1.72058 0
0.538973 -1.77315 0
-0.456869 -1.42582 0
-0.426204 -1.44294 0
-0.336315 -1.40077 0
-0.413496 -1.30915 0
-0.456869 -1.42582 0
0.220437 -0.55146 0
0.291752 -0.422349 0
0.187634 -0.409558 0
0.163757 -0.41662 0
0.220437 -0.55146 0
0.725692 -0.578295 0
0.782393 -0.594215 0
0.822898 -0.582256 0
0.843191 -0.570381 0
0.758226 -0.432968 0
0.754268 -0.432795 0
0.725692 -0.578295 0
-0.338922 -2 0
-0.220214 -2 0
-0.226206 -1.96461 0
-0.281374 -1.93789 0
-0.338922 -2 0
-0.379148 0.411568 0
-0.368981 0.406926 0
-0.313308 0.404941 0
-0.285322 0.41232 0
-0.269843 0.425666 0
-0.339539 0.58265 0
-0.35947 0.587804 0
-0.367249 0.585538 0
-0.379148 0.411568 0
-0.050692 -0.27284 0
-0.00214387 -0.416516 0
0.00649798 -0.416516 0
0.0542586 -0.262151 0
0.0347798 -0.255134 0
-0.0320626 -0.255134 0
-0.049672 -0.261481 0
-0.050692 -0.27284 0
-0.221224 -1.85221 0
-0.166472 -1.90616 0
-0.106545 -1.85474 0
-0.133685 -1.7717 0
-0.226603 -1.80987 0
-0.221224 -1.85221 0
0.843191 -0.570381 0
0.866353 -0.566729 0
0.875018 -0.536368 0
0.832012 -0.420717 0
0.821498 -0.418151 0
0.758226 -0.432968 0
0.843191 -0.570381 0
-0.506001 -1.4287 0
-0.529598 -1.44139 0
-0.533041 -1.5099 0
-0.407006 -1.53524 0
-0.426204 -1.44294 0
-0.456869 -1.42582 0
-0.506001 -1.4287 0
-0.226206 -1.96461 0
-0.220214 -2 0
-0.112002 -2 0
-0.163115 -1.93289 0
-0.169524 -1.92742 0
-0.226206 -1.96461 0
0.512062 -1.78663 0
0.538973 -1.77315 0
0.58563 -1.72058 0
0.572528 -1.68091 0
0.471671 -1.60777 0
0.448019 -1.61271 0
0.448903 -1.6471 0
0.512062 -1.78663 0
-0.0320626 -0.255134 0
0.0347798 -0.255134 0
0.0228316 -0.0889068 0
-0.0250347 -0.0889068 0
-0.0320626 -0.255134 0
-0.465864 0.561159 0
-0.429936 0.573957 0
-0.399556 0.588321 0
-0.427238 0.642831 0
-0.49956 0.679067 0
-0.543214 0.604615 0
-0.542714 0.588481 0
-0.507426 0.562262 0
-0.465864 0.561159 0
-0.500891 -1.29685 0
-0.48834 -1.29792 0
-0.424193 -1.27715 0
-0.423364 -1.27559 0
-0.508042 -1.16854 0
-0.54623 -1.2679 0
-0.500891 -1.29685 0
0.844927 -0.735087 0
0.855186 -0.73981 0
0.960188 -0.616156 0
0.88979 -0.583208 0
0.846742 -0.68929 0
0.844927 -0.735087 0
-0.163115 -1.93289 0
-0.112002 -2 0
-0.110835 -2 0
-0.0544541 -1.92811 0
-0.163115 -1.93289 0
-0.49956 0.679067 0
-0.427238 0.642831 0
-0.422794 0.74504 0
-0.507378 0.750496 0
-0.49956 0.679067 0
0.106152 -0.422183 0
0.118459 -0.426994 0
0.143808 -0.417158 0
0.139684 -0.254047 0
0.1258 -0.248659 0
0.103815 -0.248932 0
0.0643442 -0.26211 0
0.106152 -0.422183 0
0.471671 -1.60777 0
0.572528 -1.68091 0
0.623565 -1.59978 0
0.579786 -1.52954 0
0.536533 -1.53605 0
0.471671 -1.60777 0
-0.523087 -1.13483 0
-0.508042 -1.16854 0
-0.423364 -1.27559 0
-0.407511 -1.26325 0
-0.392237 -1.20362 0
-0.475265 -1.08886 0
-0.523087 -1.13483 0
0.855186 -0.73981 0
0.876452 -0.767313 0
0.947266 -0.768956 0
0.976943 -0.755429 0
0.969219 -0.61583 0
0.960188 -0.616156 0
0.855186 -0.73981 0
-0.166472 -1.90616 0
-0.169524 -1.92742 0
-0.163115 -1.93289 0
-0.0544541 -1.92811 0
-0.0272299 -1.90511 0
-0.0218349 -1.89608 0
-0.106545 -1.85474 0
-0.166472 -1.90616 0
0.875018 -0.536368 0
0.974039 -0.440025 0
0.962081 -0.429358 0
0.88998 -0.412533 0
0.832012 -0.420717 0
0.875018 -0.536368 0
0.736362 -1.91972 0
0.776696 -1.87168 0
0.728785 -1.75185 0
0.717116 -1.74583 0
0.698237 -1.7529 0
0.663284 -1.84055 0
0.736362 -1.91972 0
-0.110835 -2 0
-0.0274861 -2 0
-0.0272299 -1.90511 0
-0.0544541 -1.92811 0
-0.110835 -2 0
0.0347798 -0.255134 0
0.0542586 -0.262151 0
0.0643442 -0.26211 0
0.103815 -0.248932 0
0.0656887 -0.0865791 0
0.0268687 -0.0875416 0
0.0228316 -0.0889068 0
0.0347798 -0.255134 0
0.58563 -1.72058 0
0.597712 -1.72252 0
0.671453 -1.63301 0
0.661967 -1.60531 0
0.623565 -1.59978 0
0.572528 -1.68091 0
0.58563 -1.72058 0
-0.360707 -1.77731 0
-0.359364 -1.77863 0
-0.287133 -1.78094 0
-0.194342 -1.66514 0
-0.240293 -1.62354 0
-0.343681 -1.71084 0
[...]
CELL_DATA 858
FIELD FieldData 6
weight 1 858 float
 1191.24 1191.24 1191.24 1191.24 1191.24 1191.24 1191.24 1191.24 1191.24 1191.24 1191.24 1191.24 1191.24 1191.24 1191.24 1191.24 1191.24 1191.24 1191.24 1191.24 1191.24 1191.24 1191.24 1191.24 1191.24 1191.24 1191.24 1191.24 1191.24 1191.24 1191.24 1191.24 1191.24 1191.24 1191.24 1191.24 1191.24 1191.24 1191.24 1191.24 1191.24 1191.24 1191.24 1191.24 1191.24 1191.24 1191.24 1191.25 1191.24 1191.24 1191.24 1191.24 1191.24 1191.24 1191.24 1191.25 1191.24 1191.24 1191.24 1191.25 1191.24 1191.24 1191.24 1191.24 1191.24 1191.24 1191.24 1191.24 1191.24 1191.24 1191.24 1191.25 1191.24 1191.24 1191.24 1191.24 1191.24 1191.24 1191.24 1191.25 1191.24 1191.24 1191.24 1191.25 1191.24 1191.25 1191.24 1191.24 1191.24 1191.24 1191.25 1191.24 1191.24 1191.24 1191.24 1191.25 1191.24 1191.24 1191.24 1191.24 1191.25 1191.24 1191.24 1191.24 1191.24 1191.24 1191.24 1191.24 1191.24 1191.24 1191.24 1191.24 1191.24 1191.24 1191.25 1191.24 1191.24 1191.24 1191.25 1191.25 1191.24 1191.24 1191.24 1191.25 1191.24 1191.25 1191.24 1191.25 1191.24 1191.24 1191.24 1191.24 1191.24 1191.24 1191.24 1191.24 1191.24 1191.24 1191.24 1191.25 1191.25 1191.24 1191.25 1191.24 1191.24 1191.24 1191.25 1191.24 1191.24 1191.25 1191.24 1191.24 1191.25 1191.24 1191.25 1191.24 1191.24 1191.24 1191.25 1191.24 1191.25 1191.24 1191.25 1191.24 1191.24 1191.25 1191.24 1191.25 1191.24 1191.24 1191.24 1191.24 1191.25 1191.24 1191.25 1191.25 1191.24 1191.24 1191.24 1191.25 1191.24 1191.24 1191.24 1191.24 1191.25 1191.24 1191.24 1191.25 1191.25 1191.24 1191.24 1191.24 1191.24 1191.25 1191.24 1191.24 1191.25 1191.24 1191.24 1191.24 1191.24 1191.25 1191.24 1191.24 1191.24 1191.24 1191.24 1191.25 1191.25 1191.24 1191.24 1191.25 1191.24 1191.25 1191.25 1191.25 1191.24 1191.24 1191.24 1191.25 1191.25 1191.24 1191.25 1191.25 1191.24 1191.24 1191.25 1191.25 1191.25 1191.24 1191.25 1191.24 1191.25 1191.25 1191.24 1191.25 1191.24 1191.24 1191.25 1191.24 1191.25 1191.25 1191.24 1191.24 1191.25 1191.24 1191.24 1191.25 1191.24 1191.24 1191.25 1191.25 1191.24 1191.25 1191.24 1191.24 1191.24 1191.24 1191.24 1191.24 1191.24 1191.24 1191.24 1191.24 1191.24 1191.25 1191.24 1191.24 1191.24 1191.25 1191.24 1191.24 1191.25 1191.25 1191.24 1191.24 1191.24 1191.24 1191.24 1191.25 1191.25 1191.24 1191.24 1191.25 1191.24 1191.24 1191.24 1191.25 1191.25 1191.24 1191.25 1191.24 1191.24 1191.24 1191.25 1191.24 1191.25 1191.24 1191.24 1191.24 1191.25 1191.24 1191.24 1191.25 1191.24 1191.24 1191.24 1191.24 1191.25 1191.25 1191.24 1191.24 1191.25 1191.24 1191.24 1191.24 1191.24 1191.25 1191.24 1191.24 1191.24 1191.25 1191.24 1191.24 1191.24 1191.25 1191.24 1191.25 1191.24 1191.25 1191.24 1191.24 1191.25 1191.24 1191.25 1191.24 1191.24 1191.24 1191.24 1191.24 1191.25 1191.24 1191.25 1191.24 1191.25 1191.24 1191.24 1191.24 1191.24 1191.24 1191.24 1191.24 1191.24 1191.25 1191.24 1191.24 1191.24 1191.24 1191.24 1191.24 1191.25 1191.25 1191.24 1191.24 1191.24 1191.24 1191.25 1191.24 1191.25 1191.24 1191.24 1191.24 1191.24 1191.24 1191.24 1191.24 1191.25 1191.25 1191.24 1191.24 1191.25 1191.24 1191.25 1191.25 1191.24 1191.24 1191.24 1191.24 1191.25 1191.25 1191.25 1191.25 1191.24 1191.25 1191.25 1191.24 1191.25 1191.24 1191.24 1191.25 1191.24 1191.24 1191.25 1191.24 1191.25 1191.24 1191.24 1191.25 1191.25 1191.24 1191.25 1191.25 1191.25 1191.24 1191.25 1191.25 1191.24 1191.24 1191.25 1191.24 1191.25 1191.24 1191.25 1191.25 1191.25 1191.25 1191.24 1191.24 1191.24 1191.25 1191.25 1191.25 1191.25 1191.24 1191.25 1191.24 1191.24 1191.25 1191.24 1191.25 1191.25 1191.24 1191.25 1191.24 1191.25 1191.25 1191.25 1191.24 1191.25 1191.25 1191.24 1191.25 1191.25 1191.25 1191.24 1191.25 1191.24 1191.25 1191.24 1191.25 1191.24 1191.25 1191.25 1191.25 1191.25 1191.24 1191.25 1191.24 1191.24 1191.24 1191.25 1191.24 1191.25 1191.25 1191.24 1191.24 1191.25 1191.25 1191.24 1191.25 1191.24 1191.25 1191.24 1191.24 1191.25 1191.24 1191.24 1191.25 1191.25 1191.24 1191.24 1191.25 1191.24 1191.25 1191.24 1191.25 1191.24 1191.25 1191.24 1191.24 1191.24 1191.24 1191.25 1191.24 1191.24 1191.25 1191.24 1191.25 1191.24 1191.25 1191.24 1191.24 1191.24 1191.25 1191.24 1191.25 1191.24 1191.25 1191.24 1191.25 1191.25 1191.24 1191.24 1191.25 1191.25 1191.24 1191.25 1191.25 1191.25 1191.25 1191.25 1191.24 1191.25 1191.25 1191.25 1191.24 1191.25 1191.25 1191.25 1191.24 1191.25 1191.25 1191.24 1191.25 1191.25 1191.24 1191.25 1191.24 1191.25 1191.25 1191.25 1191.24 1191.25 1191.25 1191.24 1191.25 1191.24 1191.25 1191.25 1191.25 1191.25 1191.24 1191.24 1191.25 1191.25 1191.25 1191.24 1191.24 1191.25 1191.25 1191.25 1191.25 1191.25 1191.24 1191.25 1191.25 1191.24 1191.25 1191.25 1191.25 1191.24 1191.25 1191.25 1191.24 1191.25 1191.24 1191.25 1191.25 1191.25 1191.25 1191.24 1191.25 1191.24 1191.24 1191.25 1191.24 1191.25 1191.24 1191.25 1191.24 1191.25 1191.24 1191.25 1191.24 1191.25 1191.25 1191.24 1191.25 1191.25 1191.25 1191.24 1191.24 1191.24 1191.25 1191.25 1191.25 1191.25 1191.25 1191.24 1191.24 1191.25 1191.24 1191.25 1191.24 1191.25 1191.25 1191.24 1191.24 1191.25 1191.25 1191.25 1191.25 1191.25 1191.25 1191.24 1191.24 1191.24 1191.25 1191.25 1191.25 1191.25 1191.25 1191.24 1191.25 1191.25 1191.25 1191.25 1191.24 1191.25 1191.24 1191.25 1191.25 1191.24 1191.25 1191.24 1191.25 1191.24 1191.25 1191.25 1191.25 1191.25 1191.24 1191.25 1191.24 1191.24 1191.25 1191.25 1191.25 1191.24 1191.25 1191.24 1191.25 1191.25 1191.24 1191.25 1191.25 1191.24 1191.24 1191.25 1191.25 1191.24 1191.25 1191.24 1191.25 1191.24 1191.25 1191.25 1191.24 1191.24 1191.25 1191.24 1191.25 1191.24 1191.25 1191.24 1191.24 1191.25 1191.25 1191.24 1191.25 1191.24 1191.24 1191.25 1191.24 1191.25 1191.25 1191.25 1191.25 1191.24 1191.24 1191.25 1191.25 1191.24 1191.25 1191.25 1191.24 1191.24 1191.25 1191.25 1191.25 1191.25 1191.24 1191.24 1191.24 1191.25 1191.25 1191.24 1191.25 1191.25 1191.24 1191.24 1191.25 1191.25 1191.24 1191.25 1191.24 1191.24 1191.24 1191.25 1191.25 1191.24 1191.25 1191.24 1191.25 1191.24 1191.25 1191.24 1191.25 1191.24 1191.25 1191.24 1191.25 1191.25 1191.25 1191.24 1191.24 1191.25 1191.25 1191.25 1191.25 1191.24 1191.25 1191.25 1191.24 1191.24 1191.25 1191.24 1191.24 1191.25 1191.25 1191.24 1191.25 1191.24 1191.25 1191.25 1191.24 1191.25 1191.24 1191.24 1191.25 1191.25 1191.24 1191.24 1191.25 1191.25 1191.25 1191.24 1191.25 1191.24 1191.24 1191.25 1191.25 1191.25 1191.24 1191.24 1191.25 1191.24 1191.25 1191.25 1191.24 1191.24 1191.25 1191.24 1191.24 1191.25 1191.24 1191.24 1191.24 1191.25 1191.25 1191.25 1191.24 1191.25 1191.24 1191.25 1191.24 1191.25 1191.25 1191.24 1191.24 1191.25 1191.25 1191.24 1191.24 1191.25 1191.24 1191.25 1191.25 1191.24 1191.24 1191.25 1191.24 1191.25 1191.25 1191.25 1191.25 1191.25 1191.25 1191.25 1191.25 1191.25 1191.25 1191.25 1191.24 1191.25 1191.25 1191.25 1191.25 1191.25 1191.24 1191.24 1191.25 1191.25 1191.25 1191.25 1191.25 1191.25 1191.25
num 1 858 float
 461 462 183 496 184 218 531 495 219 497 529 220 565 221 530 253 564 254 600 475 236 599 201 566 202 288 476 532 203 255 567 239 256 204 601 546 237 602 510 222 324 223 238 325 511 521 187 711 542 224 522 289 189 271 577 743 358 487 190 744 544 272 359 489 225 523 240 191 578 273 257 778 309 612 274 290 524 275 613 779 556 291 614 745 579 746 326 626 205 580 747 591 241 361 545 781 592 207 393 581 780 559 394 209 615 642 557 429 208 616 643 558 395 243 714 477 593 360 918 679 478 431 244 953 628 678 512 954 430 645 276 396 644 432 646 242 513 293 277 680 988 329 681 310 514 327 712 311 479 713 647 480 782 258 748 627 648 292 783 515 683 594 715 550 175 749 226 955 362 516 278 629 750 582 956 751 211 279 547 991 630 177 583 313 665 548 549 666 1023 297 617 631 245 1024 618 332 1025 246 584 333 632 989 551 210 619 633 299 716 990 334 620 702 280 784 1026 667 585 212 367 785 668 649 957 786 259 335 717 813 958 260 700 247 682 814 336 684 213 621 848 370 701 719 261 403 849 342 281 735 194 368 718 815 295 736 307 192 180 315 316 363 182 328 350 343 402 771 248 317 330 763 193 249 816 764 294 369 377 214 282 703 765 404 318 850 378 331 283 737 729 353 851 229 308 437 772 296 730 285 195 344 884 385 438 738 250 196 345 650 773 992 215 227 798 634 380 216 439 920 217 411 635 799 228 251 405 800 412 704 364 919 371 262 669 287 885 365 440 386 298 447 670 366 801 406 886 379 636 263 397 441 661 414 420 921 651 398 230 415 352 662 922 685 265 416 433 638 686 302 887 231 637 399 448 351 303 264 696 817 400 337 671 413 721 818 388 372 450 300 672 753 697 852 387 994 705 374 752 449 301 993 423 252 740 664 754 373 266 959 853 421 706 787 971 197 854 960 422 338 789 319 819 232 972 774 755 961 304 198 284 1008 820 739 720 320 995 233 663 775 354 821 996 306 741 355 698 855 756 340 1029 742 356 790 1028 699 339 856 321 707 199 766 375 791 888 1030 776 341 731 235 286 267 923 376 733 890 268 407 732 889 409 767 234 891 408 269 802 442 401 925 924 434 443 768 270 926 435 769 410 734 305 436 652 444 946 426 463 803 464 1043 427 980 445 428 498 804 499 777 500 833 465 770 832 466 653 866 805 501 867 945 687 868 1007 502 840 947 688 446 834 806 948 533 973 723 473 807 835 568 689 472 981 869 974 474 870 982 654 975 508 842 903 983 1044 655 507 902 875 1009 656 569 937 841 1045 724 1015 455 725 910 543 690 1041 877 534 904 1017 509 722 456 876 905 1018 757 603 878 323 453 758 491 938 604 911 490 976 322 940 454 949 912 457 950 977 941 481 535 493 984 1046 939 808 792 482 570 1010 494 809 517 836 916 571 492 1011 793 837 952 1012 810 536 525 483 871 843 986 759 873 605 944 844 951 760 526 978 606 845 872 357 794 561 985 467 811 838 979 987 560 795 389 468 1013 812 1019 390 822 503 839 846 595 1014 823 504 424 874 847 596 1021 425 906 469 788 879 562 391 907 470 857 527 1048 312 392 942 858 471 1049 563 346 943 505 825 880 898 824 506 528 909 913 484 826 932 541 598 914 859 908 933 572 518 597 899 861 519 915 962 537 460 900 963 538 892 459 520 573 998 901 458 893 381 881 586 934 347 964 607 883 552 927 882 997 608 314 935 917 1033 928 622 999 929 639 587 895 609 349 896 675 554 966 539 674 860 383 965 574 553 708 930 382 540 894 673 1000 555 709 575 348 1001 710 931 576 640 1032 588 936 1034 624 589 827 657 610 1035 641 623 384 676 828 677 590 1036 611 862 417 863 829 451 625 967 831 452 485 830 418 969 864 486 419 968 488 865 1002 897 1003 1004 970 1005 1006 691 1037 1039 658 1040 726 727 692 693 659 660 694 695 761 728 762 796 797
kind 1 858 float
 0 0 0 0 0 0 0 0 0 0 0 0 0 0 0 0 0 0 0 0 0 0 0 0 0 0 0 0 0 0 0 0 0 0 0 0 0 0 0 0 0 0 0 0 0 0 0 0 0 0 0 0 0 0 0 0 0 0 0 0 0 0 0 0 0 0 0 0 0 0 0 0 0 0 0 0 0 0 0 0 0 0 0 0 0 0 0 0 0 0 0 0 0 0 0 0 0 0 0 0 0 0 0 0 0 0 0 0 0 0 0 0 0 0 0 0 0 0 0 0 0 0 0 0 0 0 0 0 0 0 0 0 0 0 0 0 0 0 0 0 0 0 0 0 0 0 0 0 0 0 0 0 0 0 0 0 0 0 0 0 0 0 0 0 0 0 0 0 0 0 0 0 0 0 0 0 0 0 0 0 0 0 0 0 0 0 0 0 0 0 0 0 0 0 0 0 0 0 0 0 0 0 0 0 0 0 0 0 0 0 0 0 0 0 0 0 0 0 0 0 0 0 0 0 0 0 0 0 0 0 0 0 0 0 0 0 0 0 0 0 0 0 0 0 0 0 0 0 0 0 0 0 0 0 0 0 0 0 0 0 0 0 0 0 0 0 0 0 0 0 0 0 0 0 0 0 0 0 0 0 0 0 0 0 0 0 0 0 0 0 0 0 0 0 0 0 0 0 0 0 0 0 0 0 0 0 0 0 0 0 0 0 0 0 0 0 0 0 0 0 0 0 0 0 0 0 0 0 0 0 0 0 0 0 0 0 0 0 0 0 0 0 0 0 0 0 0 0 0 0 0 0 0 0 0 0 0 0 0 0 0 0 0 0 0 0 0 0 0 0 0 0 0 0 0 0 0 0 0 0 0 0 0 0 0 0 0 0 0 0 0 0 0 0 0 0 0 0 0 0 0 0 0 0 0 0 0 0 0 0 0 0 0 0 0 0 0 0 0 0 0 0 0 0 0 0 0 0 0 0 0 0 0 0 0 0 0 0 0 0 0 0 0 0 0 0 0 0 0 0 0 0 0 0 0 0 0 0 0 0 0 0 0 0 0 0 0 0 0 0 0 0 0 0 0 0 0 0 0 0 0 0 0 0 0 0 0 0 0 0 0 0 0 0 0 0 0 0 0 0 0 0 0 0 0 0 0 0 0 0 0 0 0 0 0 0 0 0 0 0 0 0 0 0 0 0 0 0 0 0 0 0 0 0 0 0 0 0 0 0 0 0 0 0 0 0 0 0 0 0 0 0 0 0 0 0 0 0 0 0 0 0 0 0 0 0 0 0 0 0 0 0 0 0 0 0 0 0 0 0 0 0 0 0 0 0 0 0 0 0 0 0 0 0 0 0 0 0 0 0 0 0 0 0 0 0 0 0 0 0 0 0 0 0 0 0 0 0 0 0 0 0 0 0 0 0 0 0 0 0 0 0 0 0 0 0 0 0 0 0 0 0 0 0 0 0 0 0 0 0 0 0 0 0 0 0 0 0 0 0 0 0 0 0 0 0 0 0 0 0 0 0 0 0 0 0 0 0 0 0 0 0 0 0 0 0 0 0 0 0 0 0 0 0 0 0 0 0 0 0 0 0 0 0 0 0 0 0 0 0 0 0 0 0 0 0 0 0 0 0 0 0 0 0 0 0 0 0 0 0 0 0 0 0 0 0 0 0 0 0 0 0 0 0 0 0 0 0 0 0 0 0 0 0 0 0 0 0 0 0 0 0 0 0 0 0 0 0 0 0 0 0 0 0 0 0 0 0 0 0 0 0 0 0 0 0 0 0 0 0 0 0 0 0 0 0 0 0 0 0 0 0 0 0 0 0 0 0 0 0 0 0 0 0 0 0 0 0 0 0 0 0 0 0 0 0 0 0 0 0 0 0 0 0 0 0 0 0 0 0 0 0 0 0 0 0 0 0 0 0 0 0 0 0 0 0 0 0
centroid_x 1 858 float