# vtk DataFile Version 3.0
vtk output
ASCII
DATASET UNSTRUCTURED_GRID
POINTS 18588 double
-219048 2605.74 0
-207680 2492.59 0
-203122 2663.27 0
-204650 2682.77 0
-217287 2719.17 0
-219048 2605.74 0
-734228 1374.48 0
-727208 1438.04 0
-725939 1456.58 0
-733552 1721.35 0
-744190 1663.96 0
-734228 1374.48 0
-1e+06 4509.18 0
-979169 4458.77 0
-973545 4568.81 0
-973667 4591.99 0
-989418 4718.99 0
-1e+06 4671.59 0
-1e+06 4509.18 0
903362 2844.42 0
929290 2809.15 0
921727 3066 0
912839 3035.96 0
905592 2930.23 0
903362 2844.42 0
-955155 3113.74 0
-951228 3032 0
-929713 3064.94 0
-929456 3071.12 0
-929178 3095.28 0
-951862 3272.35 0
-953315 3256.27 0
-954387 3231.37 0
-955155 3113.74 0
-1e+06 5396.18 0
-987990 5438.48 0
-981038 5570.77 0
-981573 5631.03 0
-1e+06 5723.04 0
-1e+06 5396.18 0
51425.4 5258.71 0
61220.5 5265.13 0
65213.8 5368.34 0
45969.5 5470.17 0
45557.6 5465.16 0
45704.5 5399.48 0
51425.4 5258.71 0
829749 6263.79 0
818001 6402.86 0
814210 6387.09 0
808023 6245.99 0
821530 6113.69 0
823237 6121.11 0
829749 6263.79 0
322933 7744.79 0
311486 7988.86 0
310768 7988.93 0
302437 7807.8 0
308251 7707.71 0
318710 7647.77 0
322933 7744.79 0
452750 6521.09 0
453974 6477.24 0
466016 6343.99 0
468614 6328.93 0
473814 6349.9 0
473730 6555.85 0
455252 6647.09 0
454389 6629.81 0
452750 6521.09 0
767523 7630.99 0
789673 7571.01 0
790284 7589.7 0
787401 7781.68 0
780972 7800.36 0
766989 7707.55 0
767523 7630.99 0
-829209 687.295 0
-835542 588.431 0
-863847 0 0
-800228 0 0
-799468 26.7381 0
-808902 642.236 0
-820640 719.952 0
-829209 687.295 0
-243844 2853.98 0
-243768 2833.31 0
-220493 2781.73 0
-219215 2893.4 0
-227156 3027.74 0
-231191 3027.73 0
-240538 2925.32 0
-243844 2853.98 0
-679702 1482.45 0
-684045 1658.94 0
-698955 1651.56 0
-699251 1644.3 0
-690493 1375.48 0
-688944 1381.29 0
-683011 1424.51 0
-679702 1482.45 0
-936176 4453.55 0
-934204 4461.32 0
-927432 4596 0
-938086 4743.94 0
-942107 4733.85 0
-949102 4599.92 0
-936176 4453.55 0
931738 2795.96 0
933793 2765.12 0
947116 2755.51 0
950319 2822.89 0
936750 3093.39 0
935689 3088.15 0
931738 2795.96 0
-930357 2924.26 0
-925143 2834.43 0
-905298 2895.31 0
-904858 2944.74 0
-929456 3071.12 0
-929713 3064.94 0
-930357 2924.26 0
-896588 5458.5 0
-893304 5477.04 0
-889185 5561.96 0
-889680 5678.37 0
-907401 5707.89 0
-911477 5624.82 0
-896588 5458.5 0
-838508 851.453 0
-835406 694.343 0
-831535 721.474 0
-838508 851.453 0
96281.2 5153.21 0
97124.5 5436 0
87257.7 5489.02 0
78381.1 5477.99 0
76989.4 5446.63 0
76644.7 5295.12 0
80414.5 5180.08 0
96281.2 5153.21 0
858509 6298.52 0
870342 6155.06 0
873795 6167.07 0
880844 6310.48 0
865103 6444.49 0
865031 6444.08 0
858509 6298.52 0
790284 7589.7 0
806080 7664.67 0
799242 7912.31 0
795811 7893.01 0
787401 7781.68 0
790284 7589.7 0
473730 6555.85 0
473814 6349.9 0
475225 6340.99 0
476411 6339.41 0
494972 6542.96 0
480975 6673.32 0
479036 6667.1 0
473730 6555.85 0
325354 7567.55 0
336850 7627.91 0
338437 7726.68 0
331523 7811.31 0
322933 7744.79 0
318710 7647.77 0
319781 7605.86 0
325354 7567.55 0
-243768 2833.31 0
-247643 2673.81 0
-247774 2644.11 0
-244108 2560.59 0
-243017 2562.32 0
-220392 2775.13 0
-220493 2781.73 0
-243768 2833.31 0
-989418 4718.99 0
-973667 4591.99 0
-966632 4730.09 0
-978304 4878.25 0
-981413 4869.12 0
-989418 4718.99 0
975179 2861.91 0
974297 2881.24 0
969954 2876.58 0
964194 2582.42 0
973063 2551.3 0
975571 2564.24 0
975179 2861.91 0
-731877 1754.98 0
-732697 1852.6 0
-741978 1964.96 0
-750732 1837.76 0
-748180 1668.89 0
-744190 1663.96 0
-733552 1721.35 0
-731877 1754.98 0
-893051 3045.33 0
-879782 2799.65 0
-873725 2873.29 0
-878628 3112.97 0
-880483 3131.39 0
-893051 3045.33 0
-917894 5516.44 0
-912903 5616.1 0
-929714 5772.02 0
-934882 5667.96 0
-927766 5492.3 0
-917894 5516.44 0
845042 6137.4 0
848847 6151.13 0
855005 6283.98 0
842460 6425.51 0
839655 6413.37 0
833469 6277.8 0
845042 6137.4 0
-905498 0 0
-863847 0 0
-835542 588.431 0
-835406 694.343 0
-838508 851.453 0
-839394 872.092 0
-849152 955.705 0
-856734 852.759 0
-905498 0 0
766989 7707.55 0
780972 7800.36 0
773020 8060.42 0
770169 8038.98 0
762753 7919.98 0
766378 7716.66 0
766989 7707.55 0
98365.2 5088.89 0
128538 5196.55 0
126743 5342.36 0
125722 5385.04 0
99071.5 5444.43 0
97124.5 5436 0
96281.2 5153.21 0
98365.2 5088.89 0
280670 7944.01 0
281089 7907.72 0
291703 7768.91 0
298689 7801.97 0
291759 8043.95 0
280670 7944.01 0
374074 6649.78 0
374844 6603.55 0
377217 6609.49 0
394750 6775.4 0
394920 6796.03 0
390022 6880.8 0
377036 6904.55 0
373789 6808.8 0
374074 6649.78 0
-878628 3112.97 0
-873725 2873.29 0
-870211 2879.2 0
-859190 2973.06 0
-860521 3132.13 0
-878628 3112.97 0
-193985 2636.78 0
-172614 2020.62 0
-104955 1030.13 0
-169534 2771.41 0
-181255 2838.88 0
-184728 2813.36 0
-193985 2636.78 0
-951365 4592.08 0
-949102 4599.92 0
-942107 4733.85 0
-952529 4881.89 0
-956879 4870.24 0
-963657 4739.9 0
-951365 4592.08 0
-718350 1731.82 0
-710994 1861.46 0
-711674 1937.23 0
-715809 2018.31 0
-732697 1852.6 0
-731877 1754.98 0
-718350 1731.82 0
-980437 5870.01 0
-976988 5721.75 0
-963835 5718.48 0
-960247 5789.46 0
-969940 5973.95 0
-976799 5942.37 0
-980437 5870.01 0
947116 2755.51 0
947391 2746.51 0
952214 2659.37 0
959468 2570.85 0
964194 2582.42 0
969954 2876.58 0
966483 2889.03 0
954002 2855.6 0
950319 2822.89 0
947116 2755.51 0
-835406 694.343 0
-835542 588.431 0
-829209 687.295 0
-831535 721.474 0
-835406 694.343 0
882960 5599.9 0
890359 5747.12 0
878878 5890.72 0
875294 5878.93 0
868118 5731.7 0
882960 5599.9 0
25828.7 5367.14 0
36582.6 5485.08 0
29925.7 5586.85 0
16743.8 5519.16 0
25828.7 5367.14 0
766378 7716.66 0
762753 7919.98 0
754874 7924.09 0
743447 7821.09 0
744400 7731.81 0
766378 7716.66 0
275299 8018.31 0
280670 7944.01 0
291759 8043.95 0
297309 8144.39 0
295548 8192.4 0
290036 8236.06 0
274547 8053.67 0
275299 8018.31 0
399641 6567.5 0
401848 6612.44 0
394750 6775.4 0
377217 6609.49 0
399641 6567.5 0
-912372 4460.69 0
-908580 4471.87 0
-901916 4603.95 0
-913260 4749.26 0
-916671 4739.06 0
-923300 4608.14 0
-912372 4460.69 0
975179 2861.91 0
975571 2564.24 0
987235 2557.78 0
993365 2653.84 0
975179 2861.91 0
-714952 1562.35 0
-709119 1566.57 0
-699251 1644.3 0
-698955 1651.56 0
-700122 1748.17 0
-710994 1861.46 0
-718350 1731.82 0
-714952 1562.35 0
-1e+06 5723.04 0
-981573 5631.03 0
-976988 5721.75 0
-980437 5870.01 0
-1e+06 5861.97 0
-1e+06 5723.04 0
-905298 2895.31 0
-904460 2865.81 0
-879987 2794.16 0
-879782 2799.65 0
-893051 3045.33 0
-896459 3045.71 0
-904180 2961.96 0
-904858 2944.74 0
-905298 2895.31 0
-217287 2719.17 0
-204650 2682.77 0
-201406 2869.54 0
-202175 2885.47 0
-210419 2937.68 0
-219215 2893.4 0
-220493 2781.73 0
-220392 2775.13 0
-217287 2719.17 0
780972 7800.36 0
787401 7781.68 0
795811 7893.01 0
774661 8068.15 0
773548 8069.49 0
773020 8060.42 0
780972 7800.36 0
16743.8 5519.16 0
29925.7 5586.85 0
29151.2 5683.78 0
15878.5 5752.58 0
13219.9 5720.73 0
6472.25 5557.09 0
16743.8 5519.16 0
394750 6775.4 0
401848 6612.44 0
404510 6625.68 0
414469 6827.56 0
411335 6891.72 0
394920 6796.03 0
394750 6775.4 0
254306 7948.75 0
256395 7863.66 0
275299 8018.31 0
274547 8053.67 0
270175 8117.5 0
256437 8102.47 0
254306 7948.75 0
-887164 4469.78 0
-883551 4480.82 0
-876383 4625.14 0
-890617 4762.37 0
-891063 4760.52 0
-898398 4614.64 0
-887164 4469.78 0
929898 5620.2 0
934033 5631.03 0
940837 5762.18 0
928484 5909.12 0
925928 5899.74 0
919292 5767.25 0
929898 5620.2 0
-929714 5772.02 0
-912903 5616.1 0
-911477 5624.82 0
-907401 5707.89 0
-908214 5850.18 0
-925908 5856.97 0
-929685 5779.78 0
-929714 5772.02 0
974297 2881.24 0
975179 2861.91 0
993365 2653.84 0
993550 2654.77 0
991909 2971.61 0
989397 2984.15 0
977689 2932.83 0
974297 2881.24 0
-700122 1748.17 0
-698955 1651.56 0
-684045 1658.94 0
-678249 1786.49 0
-678715 1829.67 0
-685275 1940.77 0
-700122 1748.17 0
-204650 2682.77 0
-203122 2663.27 0
-193985 2636.78 0
-184728 2813.36 0
-201406 2869.54 0
-204650 2682.77 0
-839394 872.092 0
-838508 851.453 0
-831535 721.474 0
-829209 687.295 0
-820640 719.952 0
-825514 805.928 0
-839394 872.092 0
-929456 3071.12 0
-904858 2944.74 0
-904180 2961.96 0
-915244 3214.35 0
-918430 3220.6 0
-927712 3130.96 0
-929178 3095.28 0
-929456 3071.12 0
799242 7912.31 0
806080 7664.67 0
811055 7639.42 0
820250 7741.05 0
803342 7945.38 0
801711 7951.14 0
799242 7912.31 0
415349 6821.83 0
428192 6587.62 0
432334 6642.66 0
439478 6860.49 0
436778 6918.38 0
415349 6821.83 0
256395 7863.66 0
256014 7763.09 0
257426 7740.39 0
261022 7736.4 0
274986 7832.42 0
281089 7907.72 0
280670 7944.01 0
275299 8018.31 0
256395 7863.66 0
36582.6 5485.08 0
45557.6 5465.16 0
45969.5 5470.17 0
46700.8 5487.43 0
48369.5 5661.01 0
44928.9 5720.83 0
34439.7 5748.01 0
29151.2 5683.78 0
29925.7 5586.85 0
36582.6 5485.08 0
993550 2654.77 0
1e+06 2658.45 0
1e+06 2977.1 0
991909 2971.61 0
993550 2654.77 0
-798538 41.0954 0
-768059 224.093 0
-783857 292.074 0
-798538 41.0954 0
-927432 4596 0
-923300 4608.14 0
-916671 4739.06 0
-928067 4885.19 0
-931073 4876.22 0
-938086 4743.94 0
-927432 4596 0
905279 5613.33 0
908409 5623.3 0
915100 5755.1 0
904250 5901.71 0
900319 5890.12 0
893670 5757.55 0
905279 5613.33 0
-952225 5820.93 0
-943891 5639.8 0
-934882 5667.96 0
-929714 5772.02 0
-929685 5779.78 0
-947634 5913.59 0
-952225 5820.93 0
-679702 1482.45 0
-671828 1504.82 0
-664075 1591.69 0
-665391 1670.78 0
-678249 1786.49 0
-684045 1658.94 0
-679702 1482.45 0
-900450 3280.97 0
-901218 3290.6 0
-915244 3214.35 0
-904180 2961.96 0
-896459 3045.71 0
-900450 3280.97 0
844404 7588.53 0
848616 7596.44 0
854919 7677.36 0
855183 7743.58 0
853174 7797.38 0
829590 7814.44 0
844404 7588.53 0
394920 6796.03 0
411335 6891.72 0
411098 6916.95 0
405681 7039.56 0
400569 7090.64 0
390022 6880.8 0
394920 6796.03 0
298689 7801.97 0
302437 7807.8 0
310768 7988.93 0
304347 8089.93 0
297309 8144.39 0
291759 8043.95 0
298689 7801.97 0
76989.4 5446.63 0
78381.1 5477.99 0
72188 5567.09 0
46700.8 5487.43 0
45969.5 5470.17 0
65213.8 5368.34 0
76989.4 5446.63 0
-770481 448.522 0
[...]
CELL_DATA 2677
FIELD FieldData 6
weight 1 2677 float
 2.62898e+12 5.01064e+13 8.60684e+13 2.75027e+11 1.86439e+12 2.19349e+14 1.88339e+14 3.62121e+14 7.5352e+14 4.23723e+14 7.19627e+14 1.50901e+14 4.98527e+09 5.27671e+13 8.8826e+13 2.95226e+11 1.29463e+11 2.22581e+14 1.41815e+14 1.76721e+14 3.69509e+14 7.34124e+14 4.24097e+14 7.17121e+14 5.25075e+11 1.03222e+14 5.05816e+11 3.43695e+13 3.02913e+11 2.26098e+14 3.66165e+14 1.42561e+14 7.74663e+14 1.74882e+14 7.91958e+14 4.82225e+14 6.85845e+11 1.59259e+12 1.03697e+14 3.24576e+13 2.61297e+14 2.91621e+11 1.42616e+14 2.62016e+14 2.09967e+14 7.57976e+14 8.37899e+14 4.56588e+14 8.90419e+13 4.90678e+11 4.16091e+13 2.49357e+14 1.52904e+10 1.15814e+11 7.92716e+14 2.30624e+14 4.76409e+14 8.13663e+14 8.98557e+13 2.64285e+14 2.49277e+14 6.38436e+09 3.86311e+13 2.70649e+11 1.37455e+14 1.09403e+12 7.51521e+14 4.86279e+14 7.77808e+14 2.34571e+14 1.3598e+10 1.94529e+14 1.03641e+14 2.63777e+14 2.52179e+14 4.76649e+13 2.09872e+12 7.33408e+14 5.11824e+14 7.99739e+14 2.05998e+14 1.78034e+14 3.81487e+11 3.13523e+14 1.06961e+14 2.77954e+14 2.87968e+12 4.33282e+13 4.83897e+11 7.2759e+14 8.12375e+14 5.22946e+14 2.28624e+14 1.80348e+14 2.88248e+14 2.25162e+14 1.04442e+14 3.73928e+11 2.64295e+12 5.1692e+13 8.90572e+11 7.79661e+14 9.06094e+14 4.63391e+14 2.49496e+14 1.8279e+14 5.30497e+12 2.33335e+14 3.15153e+14 1.19734e+14 2.86307e+12 3.55219e+13 8.90679e+11 7.78734e+14 9.22085e+14 4.59952e+14 2.33043e+14 2.05256e+14 5.18812e+12 2.8909e+14 1.19578e+14 1.35765e+12 3.92382e+13 2.7665e+12 7.7923e+14 8.7586e+14 4.60464e+14 5.35023e+12 2.45247e+14 1.38883e+14 2.65045e+14 1.19641e+14 7.13107e+13 6.35742e+11 8.31956e+14 8.47464e+10 8.68174e+14 4.94955e+14 3.76115e+12 1.88102e+14 1.57688e+14 2.68216e+14 6.54737e+13 1.06857e+11 8.25756e+14 1.36918e+14 4.13438e+11 8.95802e+14 2.47359e+14 5.31192e+14 1.88355e+14 1.18574e+14 7.24687e+11 5.3291e+13 8.70376e+14 4.91603e+11 5.29788e+14 1.18733e+14 2.02026e+14 1.84382e+12 8.89727e+14 2.3802e+14 8.78729e+14 2.69606e+12 1.36593e+14 4.96434e+14 2.02587e+14 4.17368e+12 6.007e+13 1.25302e+14 2.67397e+12 8.66666e+14 2.19063e+14 2.04318e+10 8.8258e+14 1.2032e+14 2.05857e+14 5.28801e+14 5.84606e+13 2.75651e+14 8.56013e+13 1.33878e+12 2.7794e+14 9.32179e+14 8.31712e+14 2.5078e+10 2.00852e+14 1.23052e+14 8.06578e+13 9.73637e+13 5.51087e+14 2.90511e+14 3.64101e+11 9.39804e+14 2.52781e+14 3.96183e+10 8.2982e+14 7.59178e+13 2.04258e+14 8.34312e+13 5.77495e+14 1.29018e+14 2.94539e+14 9.60629e+14 2.26774e+11 2.62168e+14 8.47755e+10 8.44827e+13 6.05198e+13 2.07164e+14 8.35125e+14 5.70256e+14 1.40586e+14 3.03121e+14 9.68787e+14 2.7417e+11 2.63096e+14 -3.09022e+08 6.45944e+13 9.23517e+13 8.42831e+14 5.51366e+14 1.37457e+14 3.41632e+14 9.85931e+14 2.77369e+09 1.96632e+14 2.61262e+14 3.30909e+12 3.09681e+12 9.6868e+13 6.97057e+13 8.88235e+14 6.06891e+14 9.45881e+14 1.47162e+14 3.17227e+14 2.07349e+14 3.58069e+10 2.68334e+14 6.39693e+13 1.7847e+12 5.98297e+12 8.22512e+13 6.21992e+14 8.98515e+14 9.92618e+14 7.87755e+13 3.44723e+14 2.44595e+14 9.81877e+11 1.61805e+14 3.55707e+12 4.59284e+13 6.3281e+12 1.3571e+14 5.97488e+14 7.25825e+14 9.06521e+13 3.73459e+14 1.00829e+15 2.42399e+14 2.30637e+12 1.69892e+14 4.07327e+13 4.58179e+12 1.10075e+13 1.26913e+14 7.2545e+14 6.04646e+14 8.33211e+13 3.51072e+14 7.64627e+14 2.55087e+14 9.50353e+11 5.02813e+12 1.78972e+14 4.57484e+13 8.56687e+12 1.27216e+14 7.37699e+14 5.46296e+14 3.22174e+14 9.70962e+13 2.69523e+14 7.97303e+14 6.56418e+11 1.78166e+14 3.87269e+12 9.07297e+12 3.24606e+13 9.16389e+13 7.28678e+14 5.77947e+14 3.32334e+14 9.22106e+13 7.3132e+14 2.62813e+14 5.62956e+10 1.08158e+13 9.23361e+12 3.2944e+13 1.57614e+14 9.89797e+13 7.81025e+14 5.43918e+14 3.18211e+14 1.05423e+14 7.26907e+14 2.7238e+14 1.85782e+10 1.40166e+13 9.97317e+12 1.57397e+14 5.12953e+13 9.28922e+13 3.62513e+14 7.98162e+14 5.9107e+14 8.76663e+13 7.85779e+14 3.70519e+11 2.71981e+14 2.01579e+13 2.3648e+13 1.76162e+14 4.23589e+13 1.10539e+14 7.87003e+14 3.48895e+14 7.58443e+14 7.76669e+13 5.93221e+14 1.57869e+12 8.99228e+12 2.61905e+14 1.91537e+13 2.05346e+14 5.24232e+13 1.11314e+14 7.47748e+14 3.74711e+14 8.31812e+14 6.19985e+14 8.7863e+13 8.3778e+12 2.69053e+14 2.62024e+12 2.03447e+14 1.45091e+13 4.5652e+13 7.12681e+14 3.81504e+14 8.29741e+14 6.39972e+14 1.01959e+14 2.98254e+14 1.21801e+13 1.84418e+14 5.62437e+12 3.92554e+13 1.31341e+13 7.83893e+14 1.07064e+14 4.05771e+14 8.78534e+14 6.60888e+14 1.29133e+13 2.918e+14 1.0206e+14 2.06699e+14 6.64413e+12 3.08333e+13 7.66322e+14 2.29759e+13 2.3505e+14 3.91683e+14 6.78878e+14 8.13025e+14 4.56723e+11 2.90651e+14 1.05866e+14 1.67966e+14 3.94755e+12 3.46163e+13 8.03613e+14 2.00063e+13 2.09786e+14 4.15138e+14 8.74765e+14 7.05358e+14 9.93488e+11 2.79187e+14 1.14231e+13 1.54962e+14 1.21291e+14 2.39134e+13 7.94317e+14 1.87124e+13 2.1079e+14 4.48712e+14 1.14218e+12 8.6475e+14 6.5084e+14 2.72237e+14 1.56413e+14 8.65393e+12 8.05636e+14 3.0116e+13 1.12375e+14 2.08353e+14 6.31901e+12 4.27721e+14 5.06928e+12 6.46834e+14 7.148e+14 3.12741e+14 8.11433e+14 1.56508e+14 1.2069e+13 1.62902e+13 2.16928e+14 1.17654e+14 5.38848e+12 4.37359e+14 6.64821e+12 6.60562e+14 7.40213e+14 3.0787e+14 8.36265e+14 1.08167e+13 1.67316e+14 2.12735e+13 1.82697e+14 1.39095e+14 3.97943e+14 1.71033e+12 6.75426e+14 1.10527e+13 7.92215e+14 8.43377e+14 3.24334e+14 6.67881e+12 1.72603e+13 1.35062e+14 2.31989e+12 4.13891e+14 1.81913e+14 8.26668e+12 6.86567e+14 7.76203e+14 5.57943e+12 3.39966e+14 8.72034e+14 1.48108e+13 1.93929e+14 2.53799e+12 1.1783e+14 1.78283e+14 4.11704e+14 3.45009e+12 7.05689e+14 3.50774e+14 7.42258e+14 8.96623e+14 6.99763e+12 2.59336e+13 1.66285e+14 3.7616e+12 1.76009e+14 6.96689e+12 1.22104e+14 4.46262e+14 5.58264e+14 8.57648e+14 3.44422e+14 7.18639e+14 3.29206e+12 2.33373e+13 1.68808e+14 1.74035e+14 1.42306e+13 1.29878e+14 4.29848e+14 5.33451e+14 7.68718e+14 8.73255e+14 3.63372e+14 2.98809e+13 1.21963e+13 1.72761e+14 1.80755e+14 1.45252e+13 4.87607e+14 1.40183e+14 8.88472e+14 5.53126e+14 5.95518e+12 7.58621e+14 3.25654e+14 1.09222e+13 1.87894e+14 1.81021e+13 2.31084e+14 7.29506e+12 4.83236e+14 5.82003e+14 8.81663e+14 1.35473e+14 4.63731e+12 8.20675e+14 3.30564e+14 1.90191e+14 2.08494e+13 1.52286e+13 2.33203e+14 7.18455e+12 4.73722e+14 9.08223e+14 1.48763e+14 5.8255e+14 8.45117e+14 3.13847e+14 1.70487e+14 1.78122e+13 1.04702e+13 2.07308e+13 2.32221e+14 1.421e+13 5.25866e+14 6.06127e+14 9.30289e+14 3.0882e+13 8.83893e+14 3.46248e+14 1.91336e+13 1.03312e+13 1.45226e+13 2.27797e+14 1.92025e+13 5.06298e+14 5.62226e+14 3.72998e+13 8.84023e+14 9.24704e+14 3.63319e+14 2.65694e+13 1.57128e+13 1.33633e+13 1.3224e+13 2.10878e+14 5.16944e+14 4.49199e+13 5.70366e+14 8.08772e+14 9.52308e+14 3.77832e+14 2.77801e+13 1.33838e+13 8.73207e+12 2.18775e+14 4.6112e+14 6.16626e+13 3.79189e+13 5.67454e+14 9.39202e+14 8.3448e+14 2.7746e+14 2.69439e+13 2.37559e+13 1.10906e+13 6.45544e+13 2.62324e+14 4.77128e+14 8.86923e+14 3.06919e+13 1.00389e+15 5.95453e+14 2.7916e+14 1.6884e+13 2.70652e+13 1.63752e+14 5.76885e+12 2.57415e+14 3.85331e+13 2.6618e+14 6.05634e+14 8.65524e+14 9.87029e+14 1.88037e+13 1.3758e+13 7.50678e+12 1.75067e+14 2.69441e+14 7.10552e+13 3.22773e+13 2.70005e+14 9.02233e+14 6.09476e+14 9.28912e+14 1.42105e+13 2.18946e+13 4.74645e+12 1.66996e+14 2.6182e+14 4.59509e+14 4.59994e+13 2.84589e+14 6.30516e+14 2.4267e+13 9.13917e+14 2.20281e+13 9.48519e+14 1.1735e+13 1.76691e+14 2.40477e+14 4.18843e+13 4.92814e+14 6.41098e+14 2.66687e+14 2.05883e+13 9.59816e+14 2.4787e+13 8.80416e+12 9.50856e+14 2.43236e+14 2.58327e+14 4.92667e+13 5.22067e+14 6.56875e+14 9.70824e+14 6.3135e+12 2.65206e+13 2.60433e+14 4.23184e+12 9.50374e+14 2.42369e+14 2.17521e+14 6.42254e+13 6.74423e+14 5.04962e+14 9.88068e+14 2.99512e+12 2.79814e+13 3.00849e+14 9.0056e+14 6.80618e+12 2.26e+14 5.37434e+13 7.88139e+13 7.00206e+14 3.92299e+14 1.0163e+15 5.08905e+12 2.72187e+13 3.12897e+14 2.09795e+14 9.55727e+14 5.74716e+12 2.30153e+14 8.55463e+13 5.44662e+13 9.73998e+14 3.9911e+14 8.98676e+12 6.77453e+14 3.19567e+13 9.32629e+14 2.93681e+14 2.14722e+14 2.48967e+13 2.24292e+14 7.53446e+13 9.29606e+13 1.07193e+15 6.2794e+14 6.92466e+12 4.20345e+14 3.66299e+13 2.89125e+14 2.0531e+14 2.19839e+13 8.98591e+13 2.3139e+14 7.87048e+13 6.47333e+14 1.04449e+15 3.80079e+13 4.40562e+14 1.12568e+13 2.03634e+14 2.62746e+14 2.4655e+13 9.70785e+13 2.31907e+14 1.024e+15 2.64031e+14 6.74789e+13 4.35825e+13 6.41177e+14 1.95808e+14 5.09451e+12 4.44645e+14 1.04096e+15 1.65466e+13 8.56378e+13 2.58479e+14 1.0912e+15 2.56657e+14 5.77185e+13 3.28813e+13 6.73866e+14 3.76786e+12 4.22415e+14 1.88853e+14 1.00313e+15 1.76422e+13 9.09284e+13 1.13092e+15 2.68604e+14 2.93006e+14 3.3007e+13 5.46148e+13 1.09771e+15 7.02904e+14 6.32971e+12 1.98849e+14 3.99518e+14 2.16349e+13 1.08918e+14 2.88902e+14 1.09796e+15 3.00932e+14 3.52231e+13 1.08833e+15 6.30902e+13 6.83886e+14 8.48956e+12 4.17818e+14 1.70644e+14 1.92863e+13 2.80083e+14 1.05866e+15 1.25125e+14 1.07963e+15 2.87145e+14 3.49988e+13 7.3279e+13 1.12976e+13 3.93437e+14 1.80771e+14 2.2742e+13 1.86155e+14 1.03241e+15 3.09831e+14 1.09576e+15 1.31217e+14 3.09107e+14 9.8037e+12 1.79727e+14 4.41805e+14 7.10802e+13 3.96946e+13 1.57081e+14 1.72463e+13 1.05752e+15 3.08715e+14 1.39958e+14 1.02117e+15 1.66265e+13 1.63859e+14 2.83529e+14 4.5674e+14 3.5585e+13 4.43758e+13 2.26207e+14 1.555e+13 1.07337e+15 1.33958e+14 2.82525e+14 1.04691e+15 1.29326e+13 4.31485e+14 1.976e+14 3.02747e+13 2.8997e+14 4.45291e+13 2.27108e+14 1.05491e+13 1.12898e+15 1.52054e+14 1.01814e+15 2.93425e+14 1.97123e+14 1.83699e+13 3.01325e+14 4.66e+14 3.53037e+13 2.26618e+14 5.12833e+13 1.17719e+13 1.13301e+15 1.49711e+14 3.41366e+14 1.01787e+15 2.49539e+13 4.86235e+14 4.70219e+13 1.91221e+14 3.35794e+14 2.16065e+14 5.42695e+13 7.78544e+12 1.13275e+15 1.46218e+14 3.41507e+14 1.0924e+15 2.32574e+13 1.9085e+14 4.65343e+14 3.16119e+14 4.73017e+13 2.31344e+14 7.0545e+12 1.11019e+15 5.35474e+13 3.48632e+14 2.16446e+13 9.27937e+14 4.88049e+14 3.3201e+14 2.62206e+13 4.0608e+13 2.42813e+14 9.52244e+14 4.31067e+12 3.14511e+14 4.9078e+13 2.49869e+13 5.09803e+14 1.96112e+14 9.40116e+14 3.455e+14 1.97264e+13 3.15917e+13 2.29946e+14 4.94063e+12 9.19137e+14 3.26832e+14 5.27948e+13 2.51313e+13 1.94804e+14 5.30303e+14 9.68095e+14 1.43064e+13 3.68664e+14 3.48334e+13 1.22032e+13 2.36664e+14 9.54643e+14 6.16966e+13 3.46939e+14 3.48823e+13 1.64218e+14 9.94995e+14 5.2943e+14 3.73726e+13 1.58129e+13 3.35956e+14 1.15809e+13 2.04659e+14 1.01298e+15 6.27421e+13 3.3416e+13 3.11115e+14 1.72422e+14 9.46228e+14 4.81649e+14 4.13459e+13 2.76675e+13 3.32968e+14 7.86059e+12 6.20965e+13 3.625e+13 9.256e+14 2.07504e+14 3.01306e+14 1.30612e+14 9.31855e+14 4.94636e+14 2.12487e+13 4.83016e+13 3.23733e+14 6.16107e+13 5.10216e+12 9.45587e+14 3.52121e+13 2.13284e+14 2.94137e+14 1.33421e+14 5.05898e+14 9.97001e+14 2.33111e+13 4.28039e+13 3.49937e+14 6.33294e+13 9.24745e+14 3.6064e+13 4.62406e+12 2.25588e+14 2.95872e+14 1.45861e+14 5.20658e+14 1.03145e+15 1.2703e+12 6.20798e+13 6.71977e+13 9.83392e+14 7.12221e+12 3.67086e+14 3.75921e+13 2.96516e+14 1.05047e+15 2.4123e+14 1.42244e+14 5.60061e+14 3.19026e+13 3.247e+12 5.44811e+13 3.76193e+14 9.69995e+14 1.47318e+14 3.49067e+13 3.32477e+14 1.16389e+14 1.07878e+15 2.3351e+14 5.66767e+14 2.90172e+13 1.30665e+12 6.01681e+13 9.97004e+14 2.60301e+14 1.77986e+14 6.25397e+13 3.37423e+14 1.08764e+15 1.14501e+14 5.4988e+14 2.42225e+14 2.8245e+12 7.123e+13 9.86223e+14 2.70714e+14 1.48093e+14 6.94615e+13 3.30356e+14 6.08015e+14 1.03611e+15 1.29593e+14 2.53164e+14 3.66058e+11 1.06081e+15 7.80553e+13 3.05395e+13 2.65274e+14 1.15871e+14 3.37756e+14 7.06299e+13 1.0628e+15 5.93306e+14 1.60095e+14 1.45712e+14 1.82713e+10 1.02503e+15 7.0801e+13 2.69485e+14 4.25626e+13 1.43152e+14 3.32026e+14 6.38507e+13 1.61848e+14 6.02467e+14 1.11616e+15 1.46627e+14 1.04908e+15 1.19146e+12 5.68019e+13 4.43139e+13 1.38105e+14 4.01029e+14 6.46306e+13 5.37251e+14 2.61127e+14 1.16511e+15 1.70164e+14 1.34103e+14 1.13104e+15 2.66179e+12 6.47297e+13 4.26202e+13 1.12948e+14 3.8501e+14 1.19878e+15 5.66196e+14 2.7706e+14 2.46923e+13 2.22894e+12 1.08637e+15 6.55078e+13 1.41735e+14 3.86099e+13 3.76328e+14 1.20379e+15 2.80461e+14 5.4918e+14 1.69528e+14 2.05176e+13 4.00018e+11 5.83003e+13 1.13117e+15 1.42951e+14 1.20152e+15 3.42077e+13 3.62848e+14 5.81058e+14 1.69255e+14 2.26897e+13 1.20431e+14 2.86141e+10 1.03735e+15 6.58862e+13 1.15158e+14 1.19971e+15 3.54346e+13 3.76839e+14 6.09312e+14 2.14615e+13 1.68314e+14 1.2091e+14 1.17793e+15 3.31803e+11 7.52379e+13 1.16371e+14 4.14237e+13 1.18049e+15 3.19349e+13 3.8552e+14 6.48051e+14 2.02931e+14 1.21466e+14 1.81599e+11 1.17822e+15 9.14303e+13 1.19908e+14 4.0106e+13 4.41594e+14 1.15884e+15 6.35812e+14 1.0882e+14 1.8234e+14 3.59416e+13 2.25023e+09 1.16505e+15 9.78668e+13 4.23408e+14 5.50549e+13 1.11964e+14 3.27369e+13 1.00316e+14 1.82776e+14 6.3379e+11 1.24185e+15 6.43998e+14 4.26706e+14 1.15548e+14 8.46413e+13 5.53736e+13 9.02345e+13 3.59964e+13 4.14561e+14 1.81807e+12 1.69281e+14 1.27017e+15 6.87441e+14 1.12227e+14 6.39107e+13 1.1297e+14 4.18561e+14 3.47907e+13 9.31109e+13 1.00941e+12 3.7297e+14 1.66982e+14 6.85333e+14 1.24573e+15 1.0778e+14 6.04164e+13 1.07566e+14 3.71525e+14 3.59235e+13 9.78856e+13 2.80413e+12 1.17736e+15 8.29128e+13 6.78352e+14 1.8784e+14 1.15401e+15 4.94491e+13 8.11585e+13 3.78256e+14 1.03509e+14 3.49711e+13 9.53658e+10 1.1613e+15 9.69769e+13 1.19387e+15 6.23971e+14 4.92199e+13 1.85428e+14 8.18849e+13 3.8589e+14 2.40615e+13 1.05745e+14 5.23674e+11 1.20976e+15 1.07475e+14 1.21018e+15 6.5281e+14 1.83565e+14 9.14251e+13 3.75651e+14 4.66131e+13 2.42575e+13 8.34915e+13 9.29587e+10 1.23691e+15 1.22369e+15 8.58819e+13 6.67329e+14 3.82955e+14 9.34655e+13 2.07875e+14 4.76883e+13 2.35887e+13 8.72564e+13 1.39604e+12 1.04696e+14 1.23868e+15 1.25452e+15 6.97284e+14 2.36868e+13 4.0263e+14 1.05529e+14 5.34723e+13 2.30126e+14 8.25789e+13 1.37222e+12 6.66291e+13 1.24347e+15 5.72832e+14 1.23977e+15 2.19819e+13 4.17204e+14 1.03419e+14 2.47623e+14 1.50395e+14 5.7936e+13 6.60821e+13 2.53628e+12 1.22724e+15 5.51752e+14 1.31858e+15 4.15186e+14 2.89679e+13 1.23603e+14 2.47509e+14 7.30831e+13 1.40002e+14 3.30603e+12 8.27389e+13 1.24567e+15 5.92071e+14 1.30379e+15 4.27162e+14 3.28349e+13 1.20361e+14 2.2848e+14 7.44244e+13 1.23132e+14 1.49247e+12 6.11155e+13 1.28611e+15 5.93851e+14 1.38642e+15 4.36368e+14 4.06367e+13 1.16581e+14 1.41236e+14 7.41805e+13 2.07475e+14 2.04365e+12 1.25738e+15 7.3488e+13 6.15595e+14 1.35045e+15 4.3463e+14 3.50741e+13 7.34986e+13 1.34673e+14 1.29647e+14 2.26342e+14 1.35335e+11 1.25535e+15 5.70562e+14 8.73871e+13 1.38582e+15 3.70438e+13 4.35445e+14 7.27528e+13 1.3655e+14 1.16052e+14 2.195e+14 8.55456e+11 1.38972e+15 1.14625e+15 5.46062e+14 1.11132e+14 3.39802e+13 3.03333e+14 7.84866e+13 1.19778e+14 1.39493e+14 2.0509e+14 3.56795e+11 1.35114e+15 5.60411e+14 9.29823e+13 1.1844e+15 4.67734e+13 3.01134e+14 1.1936e+14 1.41082e+14 7.97427e+13 2.4156e+14 2.40756e+12 5.32926e+14 1.29202e+15 8.98007e+13 4.92113e+13 1.19965e+15 2.99949e+14 1.56413e+14 7.19738e+13 1.34497e+14 2.30683e+14 1.29503e+15 6.12689e+14 7.00279e+11 1.02999e+14 5.06967e+13 3.45074e+14 1.18811e+14 7.16275e+13 1.50199e+14 2.53123e+14 1.30861e+15 1.13542e+15 5.87008e+14 2.45761e+12 8.02216e+13 5.13012e+13 2.88456e+14 1.23508e+14 9.38925e+13 2.80815e+14 8.86121e+13 1.30268e+15 1.10042e+15 6.03799e+14 4.90153e+13 4.79684e+09 6.14229e+13 2.83551e+14 1.2581e+14 2.95316e+14 8.89023e+13 2.76059e+14 1.17149e+15 1.34991e+15 5.07071e+13 7.02301e+13 5.80102e+11 1.21958e+14 2.79202e+14 1.34385e+14 2.81447e+14 3.51684e+14 8.38827e+13 1.18396e+15 6.46779e+13 6.63247e+13 6.51926e+11 1.34114e+15 2.79274e+14 1.01514e+14 1.0361e+14 2.72053e+14 3.4839e+14 6.70129e+13 1.06967e+14 7.00972e+13 7.13178e+09 1.36389e+15 1.03982e+14 2.42775e+14 3.73112e+14 7.42383e+13 2.68336e+14 6.35425e+14 6.80242e+13 7.74233e+13 1.00876e+14 4.08434e+09 2.54033e+14 1.18379e+15 3.72111e+14 9.79699e+13 6.94361e+13 3.20565e+14 6.45918e+13 9.402e+13 6.36989e+14 6.51091e+11 1.14667e+14 2.73375e+14 3.69511e+14 7.31346e+13 1.15666e+15 8.14257e+13 3.14567e+14 6.03379e+13 6.85575e+13 5.68084e+10 6.59448e+14 1.03493e+14 2.87858e+14 8.01337e+13 1.14062e+15 8.68668e+13 3.49587e+14 3.19567e+14 6.92076e+13 2.38264e+11 6.66958e+13 6.79858e+14 1.01403e+14 2.82531e+14 7.94108e+13 1.16257e+15 3.55858e+14 1.03468e+14 2.82891e+14 4.57288e+13 2.89823e+12 4.9483e+13 1.00294e+14 7.07447e+14 2.84833e+14 1.24581e+15 3.6931e+14 9.74901e+13 2.7378e+14 4.60512e+13 1.22615e+12 5.40606e+13 9.94754e+13 6.84267e+14 2.92491e+14 3.73186e+14 1.22591e+15 1.27435e+15 1.06665e+14 2.93972e+14 7.53416e+13 1.86269e+12 4.22106e+13 1.00183e+14 4.91923e+13 6.3191e+14 3.06268e+14 1.20954e+15 1.31937e+15 1.04461e+14 3.08828e+14 4.0525e+14 7.44803e+13 3.68453e+09 5.22855e+13 4.98128e+13 1.01208e+14 6.536e+14 2.78218e+14 1.18056e+15 4.11662e+14 8.59287e+13 1.23181e+15 7.57426e+13 2.92249e+14 4.77174e+11 4.77016e+13 1.00869e+14 6.29215e+13 6.58972e+14 2.85703e+14 8.64952e+13 7.42772e+13 1.18052e+15 3.09812e+14 3.5178e+14 5.83121e+11 1.08018e+14 3.55236e+13 5.40839e+13 6.83188e+14 2.8107e+14 7.76853e+13 3.52443e+14 1.22755e+15 8.01497e+13 7.75103e+11 1.62747e+14 1.1031e+14 5.98005e+13 3.54797e+13 6.79384e+14 2.85441e+14 1.24688e+15 7.65295e+13 3.41766e+14 6.92134e+13 1.61742e+14 2.25959e+12 6.30782e+13 1.3317e+14 2.55404e+13 3.05329e+14 4.06031e+14 1.26002e+15 6.02112e+13 3.67993e+14 2.58321e+12 6.00034e+13 1.58826e+14 1.17185e+14 1.14046e+14 2.66741e+13 4.14904e+14 3.10749e+14 1.29987e+15 6.2119e+13 3.62813e+14 3.63898e+12 1.28254e+15 1.02866e+14 1.60243e+14 3.777e+13 1.42828e+14 2.89039e+13 3.88363e+14 3.42401e+14 1.2944e+15 5.64985e+13 4.89576e+12 3.45129e+14 3.53196e+13 1.55622e+14 1.45299e+14 2.98158e+13 7.73059e+13 3.18022e+14 5.66626e+13 1.3586e+15 6.49381e+12 3.28299e+14 1.27697e+15 2.55725e+13 1.50132e+14 1.74506e+14 3.00467e+13 7.87046e+13 3.40845e+14 5.90595e+13 7.68154e+12 1.35486e+15 3.46301e+14 1.53734e+14 3.57394e+13 1.55067e+14 2.81124e+13 8.93987e+13 4.41553e+14 3.29527e+14 4.1793e+13 9.42372e+12 3.79194e+14 1.39095e+15 1.48543e+14 8.70374e+13 1.59466e+14 4.87736e+13 5.51351e+13 4.48989e+14 3.44916e+14 4.6653e+13 1.19005e+13 3.63941e+14 1.34462e+15 8.54478e+13 1.49814e+14 1.65665e+14 4.49283e+13 5.13885e+13 3.93426e+14 3.72083e+14 4.19498e+12 4.4276e+13 8.48971e+13 1.29545e+15 3.80624e+14 2.10631e+12 1.74891e+14 4.13794e+13 3.86789e+13 4.21001e+14 3.62219e+14 4.31535e+12 3.22607e+13 1.27967e+15 2.67758e+14 7.49588e+13 4.29392e+13 1.89973e+12 4.63503e+13 1.56414e+14 1.35584e+15 3.97402e+14 3.77781e+14 3.24195e+13 6.21074e+12 8.74779e+13 1.3703e+15 2.84979e+14 5.74227e+13 3.02892e+13 1.39702e+12 1.59075e+14 1.35296e+15 4.5564e+14 3.69077e+14 8.80911e+12 3.28977e+13 1.3473e+15 8.18231e+13 2.68228e+14 4.35149e+13 1.47934e+09 1.69678e+14 3.59529e+13 1.40759e+15 4.26624e+14 3.6236e+14 9.12118e+12 3.3899e+13 8.57042e+13 1.32763e+15 2.88955e+14 4.53725e+13 4.26465e+11 1.82717e+14 3.68387e+13 1.42358e+15 4.33166e+14 3.66196e+14 8.99957e+13 4.02935e+13 1.19777e+13 1.34409e+15 3.06334e+14 3.23429e+13 1.24865e+11 4.18585e+13 1.9958e+14 1.40979e+15 4.77028e+14 3.60321e+14 9.37415e+13 1.32411e+13 4.40635e+13 1.43753e+15 2.77728e+13 2.63136e+14 2.62724e+12 5.80106e+13 1.40502e+15 2.16562e+14 4.68187e+14 1.05219e+14 1.77503e+13 3.82855e+13 1.47827e+15 2.2437e+13 2.75601e+14 3.79307e+14 1.42318e+12 5.60063e+13 1.44259e+15 2.21086e+14 4.85595e+14 4.54249e+13 1.05469e+14 1.59539e+13 1.40264e+15 3.41359e+13 2.83075e+14 3.19077e+14 5.28153e+11 5.08142e+13 1.42888e+15 2.41746e+14 5.05168e+14 1.235e+14 3.04863e+13 2.63923e+13 1.45078e+15 3.19557e+14 2.78193e+13 2.97949e+14 3.97534e+11 5.87208e+13 2.89338e+14 5.27503e+14 7.54389e+13 1.12815e+14 2.06612e+13 1.50042e+15 1.49653e+15 1.89007e+13 3.21076e+14 3.05869e+14 7.75932e+13 6.70381e+09 2.94231e+14 5.15203e+14 8.00381e+13 1.5283e+15 2.48271e+13 1.29558e+14 1.51527e+13 3.23343e+14 1.4522e+15 3.08374e+14 7.50188e+13 5.52087e+11 2.52371e+14 4.95578e+14 1.56464e+15 7.50518e+13 1.97289e+13 1.44813e+14 3.25838e+14 1.21077e+13 3.27065e+14 5.81997e+13 4.81427e+10 1.53351e+15 2.49265e+14 4