# vtk DataFile Version 3.0
vtk output
ASCII
DATASET UNSTRUCTURED_GRID
POINTS 8514 double
-0.304637 -0.368318 0
-0.298375 -0.41013 0
-0.290062 -0.41663 0
-0.218372 -0.418922 0
-0.199674 -0.384548 0
-0.217639 -0.339853 0
-0.292394 -0.352733 0
-0.304385 -0.367535 0
-0.304637 -0.368318 0
0.346474 -1.08536 0
0.362305 -1.10441 0
0.457897 -1.06028 0
0.40535 -0.9775 0
0.346474 -1.08536 0
-0.485571 -0.546778 0
-0.468064 -0.51197 0
-0.486714 -0.473104 0
-0.525987 -0.450506 0
-0.534335 -0.45577 0
-0.554627 -0.484354 0
-0.530937 -0.572482 0
-0.485571 -0.546778 0
0.329001 -0.887658 0
0.360017 -0.90334 0
0.399526 -0.808026 0
0.358437 -0.78537 0
0.319063 -0.791937 0
0.316665 -0.847466 0
0.329001 -0.887658 0
-0.321704 -1.55169 0
-0.257215 -1.53238 0
-0.262632 -1.44111 0
-0.314693 -1.42204 0
-0.316223 -1.42357 0
-0.321704 -1.55169 0
0.630047 -0.0790825 0
0.64208 -0.0131716 0
0.565095 0.0635236 0
0.532062 0.0658974 0
0.534545 0.0366325 0
0.630047 -0.0790825 0
-0.292394 -0.352733 0
-0.217639 -0.339853 0
-0.210852 -0.243224 0
-0.211339 -0.204697 0
-0.24296 -0.228765 0
-0.292394 -0.352733 0
0.360017 -0.90334 0
0.40565 -0.972461 0
0.425535 -0.949002 0
0.416926 -0.803629 0
0.399526 -0.808026 0
0.360017 -0.90334 0
0.337129 -1.08597 0
0.346474 -1.08536 0
0.40535 -0.9775 0
0.405367 -0.975 0
0.302098 -0.979791 0
0.327436 -1.07908 0
0.337129 -1.08597 0
-1.01977 -0.438396 0
-0.998078 -0.470778 0
-0.959152 -0.449788 0
-0.951123 -0.330045 0
-1.01264 -0.370559 0
-1.01448 -0.372465 0
-1.01977 -0.438396 0
-0.62991 0.837081 0
-0.588428 0.81673 0
-0.563227 0.87344 0
-0.590799 0.94093 0
-0.630893 0.929797 0
-0.641101 0.91126 0
-0.62991 0.837081 0
-0.256165 -2 0
-0.197725 -2 0
-0.197725 -1.89167 0
-0.203677 -1.88735 0
-0.248465 -1.8876 0
-0.256165 -1.89604 0
-0.256165 -2 0
-0.136327 -0.357011 0
-0.142986 -0.256684 0
-0.187704 -0.169596 0
-0.192401 -0.172093 0
-0.211339 -0.204697 0
-0.210852 -0.243224 0
-0.136327 -0.357011 0
-0.563227 0.87344 0
-0.519565 0.884426 0
-0.507379 0.952845 0
-0.528437 0.991687 0
-0.583118 0.959339 0
-0.590799 0.94093 0
-0.563227 0.87344 0
0.643129 -0.0127878 0
0.68629 -0.00443309 0
0.68025 0.145745 0
0.671583 0.161988 0
0.642885 0.145691 0
0.643129 -0.0127878 0
-0.901249 1.44333 0
-0.834415 1.43917 0
-0.793986 1.46326 0
-0.799278 1.47956 0
-0.832786 1.53308 0
-0.862942 1.53383 0
-0.901249 1.44333 0
0.319063 -0.791937 0
0.358437 -0.78537 0
0.371879 -0.684171 0
0.339644 -0.662032 0
0.312286 -0.664672 0
0.310085 -0.774183 0
0.319063 -0.791937 0
0.287603 -0.954015 0
0.302098 -0.979791 0
0.405367 -0.975 0
0.40565 -0.972461 0
0.360017 -0.90334 0
0.329001 -0.887658 0
0.287603 -0.954015 0
-0.75336 1.59822 0
-0.787062 1.64641 0
-0.794438 1.64134 0
-0.832786 1.53308 0
-0.799278 1.47956 0
-0.75336 1.59822 0
-0.300735 1.83668 0
-0.252373 1.81558 0
-0.220342 1.93576 0
-0.222748 1.93672 0
-0.306244 1.90986 0
-0.300735 1.83668 0
-0.203677 -1.88735 0
-0.197725 -1.89167 0
-0.142718 -1.8806 0
-0.14573 -1.77157 0
-0.194487 -1.76387 0
-0.203677 -1.88735 0
-0.959152 -0.449788 0
-0.895659 -0.467356 0
-0.925555 -0.297473 0
-0.951123 -0.330045 0
-0.959152 -0.449788 0
-0.559275 1.92483 0
-0.533361 1.87772 0
-0.530408 1.87721 0
-0.468641 1.88259 0
-0.520224 2 0
-0.538528 2 0
-0.559275 1.92483 0
-0.588428 0.81673 0
-0.586584 0.813186 0
-0.565794 0.794882 0
-0.510339 0.784959 0
-0.491391 0.83658 0
-0.519565 0.884426 0
-0.563227 0.87344 0
-0.588428 0.81673 0
-0.468641 1.88259 0
-0.465996 1.88143 0
-0.404825 1.93101 0
-0.478645 2 0
-0.520224 2 0
-0.468641 1.88259 0
-0.727817 1.09328 0
-0.725382 1.08975 0
-0.666788 1.10581 0
-0.673838 1.22568 0
-0.696508 1.26872 0
-0.697047 1.26846 0
-0.727817 1.09328 0
-0.199674 -0.384548 0
-0.140526 -0.38434 0
-0.133754 -0.375082 0
-0.136327 -0.357011 0
-0.210852 -0.243224 0
-0.217639 -0.339853 0
-0.199674 -0.384548 0
-0.404825 1.93101 0
-0.366876 1.93943 0
-0.351755 1.94899 0
-0.325007 2 0
-0.478645 2 0
-0.404825 1.93101 0
0.565095 0.0635236 0
0.64208 -0.0131716 0
0.643129 -0.0127878 0
0.642885 0.145691 0
0.63146 0.141377 0
0.565095 0.0635236 0
-0.306244 1.90986 0
-0.222748 1.93672 0
-0.298732 2 0
-0.325007 2 0
-0.351755 1.94899 0
-0.306244 1.90986 0
-0.630893 0.929797 0
-0.590799 0.94093 0
-0.583118 0.959339 0
-0.602904 1.09453 0
-0.619796 1.08401 0
-0.643823 1.00939 0
-0.630893 0.929797 0
0.358437 -0.78537 0
0.399526 -0.808026 0
0.416926 -0.803629 0
0.429359 -0.789868 0
0.422715 -0.720803 0
0.407891 -0.691451 0
0.371879 -0.684171 0
0.358437 -0.78537 0
-0.727817 1.09328 0
-0.697047 1.26846 0
-0.714867 1.2667 0
-0.783665 1.11707 0
-0.727817 1.09328 0
-0.197725 -2 0
-0.140461 -2 0
-0.140461 -1.88264 0
-0.142718 -1.8806 0
-0.197725 -1.89167 0
-0.197725 -2 0
-0.288906 1.59206 0
-0.243812 1.57215 0
-0.216651 1.59359 0
-0.181463 1.72803 0
-0.189443 1.73555 0
-0.288906 1.59206 0
0.498495 0.990702 0
0.5113 1.00065 0
0.524419 1.10373 0
0.504943 1.14615 0
0.451271 1.10248 0
0.448834 1.09748 0
0.498495 0.990702 0
0.461514 -1.06287 0
0.469687 -1.07954 0
0.535352 -1.0504 0
0.549861 -0.991964 0
0.50895 -0.951861 0
0.497814 -0.953665 0
0.461514 -1.06287 0
-0.583118 0.959339 0
-0.528437 0.991687 0
-0.528319 1.01016 0
-0.584804 1.1219 0
-0.587803 1.12139 0
-0.602904 1.09453 0
-0.583118 0.959339 0
-0.295713 1.59422 0
-0.288906 1.59206 0
-0.189443 1.73555 0
-0.191358 1.73814 0
-0.212951 1.76275 0
-0.225885 1.76621 0
-0.304475 1.61821 0
-0.295713 1.59422 0
-0.666788 1.10581 0
-0.619796 1.08401 0
-0.602904 1.09453 0
-0.587803 1.12139 0
-0.600715 1.14558 0
-0.673838 1.22568 0
-0.666788 1.10581 0
-0.136327 -0.357011 0
-0.133754 -0.375082 0
-0.0877169 -0.372592 0
-0.0745895 -0.27688 0
-0.0829582 -0.265077 0
-0.142986 -0.256684 0
-0.136327 -0.357011 0
-0.216651 1.59359 0
-0.14435 1.59858 0
-0.154268 1.72699 0
-0.155688 1.72833 0
-0.181463 1.72803 0
-0.216651 1.59359 0
0.636877 -0.114915 0
0.646514 -0.205833 0
0.660077 -0.223128 0
0.727864 -0.0752055 0
0.719167 -0.0663735 0
0.636955 -0.113914 0
0.636877 -0.114915 0
-1.01264 -0.370559 0
-0.951123 -0.330045 0
-0.925555 -0.297473 0
-0.915085 -0.264442 0
-0.946671 -0.225662 0
-0.982595 -0.261406 0
-1.01264 -0.370559 0
-1.00706 -2 0
-0.941214 -2 0
-0.941214 -1.92313 0
-0.957751 -1.91047 0
-1.00706 -1.88044 0
-1.00706 -2 0
-0.212951 1.76275 0
-0.186338 1.93688 0
-0.220342 1.93576 0
-0.252373 1.81558 0
-0.245183 1.79489 0
-0.225885 1.76621 0
-0.212951 1.76275 0
-0.584804 1.1219 0
-0.528319 1.01016 0
-0.499513 1.07058 0
-0.493179 1.1391 0
-0.58089 1.12548 0
-0.584804 1.1219 0
-0.600715 1.14558 0
-0.623318 1.26652 0
-0.639225 1.28632 0
-0.664359 1.30502 0
-0.696508 1.26872 0
-0.673838 1.22568 0
-0.600715 1.14558 0
-0.252801 -1.76977 0
-0.248465 -1.8876 0
-0.203677 -1.88735 0
-0.194487 -1.76387 0
-0.20537 -1.75405 0
-0.252801 -1.76977 0
-0.181463 1.72803 0
-0.155688 1.72833 0
-0.116628 1.90524 0
-0.145261 1.92281 0
-0.191358 1.73814 0
-0.189443 1.73555 0
-0.181463 1.72803 0
-0.145261 1.92281 0
-0.171466 1.94182 0
-0.186338 1.93688 0
-0.212951 1.76275 0
-0.191358 1.73814 0
-0.145261 1.92281 0
0.565095 0.0635236 0
0.63146 0.141377 0
0.57738 0.199866 0
0.529746 0.0686763 0
0.532062 0.0658974 0
0.565095 0.0635236 0
0.425535 -0.949002 0
0.467589 -0.932099 0
0.471705 -0.865274 0
0.454847 -0.80296 0
0.429359 -0.789868 0
0.416926 -0.803629 0
0.425535 -0.949002 0
-0.587803 1.12139 0
-0.584804 1.1219 0
-0.58089 1.12548 0
-0.535607 1.22889 0
-0.536668 1.23065 0
-0.623318 1.26652 0
-0.600715 1.14558 0
-0.587803 1.12139 0
-0.0922078 1.59064 0
-0.0399393 1.55386 0
-0.0123591 1.55443 0
-0.0034394 1.56767 0
-0.00783141 1.62937 0
-0.0948883 1.65176 0
-0.0922078 1.59064 0
0.457897 -1.06028 0
0.461514 -1.06287 0
0.497814 -0.953665 0
0.467589 -0.932099 0
0.425535 -0.949002 0
0.40565 -0.972461 0
0.405367 -0.975 0
0.40535 -0.9775 0
0.457897 -1.06028 0
-0.107375 1.70368 0
0.00257381 1.71022 0
0.00566246 1.7153 0
-0.0152733 1.76151 0
-0.109919 1.7678 0
-0.123898 1.72579 0
-0.107375 1.70368 0
0.660077 -0.223128 0
0.661221 -0.225177 0
0.675678 -0.223291 0
0.762597 -0.180654 0
0.728675 -0.07582 0
0.727864 -0.0752055 0
0.660077 -0.223128 0
-0.863573 -0.41932 0
-0.833147 -0.309492 0
-0.841193 -0.253529 0
-0.905665 -0.263092 0
-0.863573 -0.41932 0
-1.00128 -1.77217 0
-1.01209 -1.78173 0
-1.01257 -1.86784 0
-1.00706 -1.88044 0
-0.957751 -1.91047 0
-0.958931 -1.76997 0
-1.00128 -1.77217 0
-0.130405 -0.481148 0
-0.126108 -0.485888 0
-0.0975373 -0.486323 0
-0.060235 -0.410545 0
-0.0877169 -0.372592 0
-0.133754 -0.375082 0
-0.140526 -0.38434 0
-0.130405 -0.481148 0
-0.501766 0.100841 0
-0.500785 0.0991497 0
-0.426155 0.142569 0
-0.433227 0.211394 0
-0.516149 0.181712 0
-0.518945 0.179319 0
-0.501766 0.100841 0
-0.493179 1.1391 0
-0.490644 1.14301 0
-0.482624 1.19916 0
-0.490022 1.2222 0
-0.535607 1.22889 0
-0.58089 1.12548 0
-0.493179 1.1391 0
-0.14435 1.59858 0
-0.137464 1.59328 0
-0.0922078 1.59064 0
-0.0948883 1.65176 0
-0.107375 1.70368 0
-0.123898 1.72579 0
-0.154268 1.72699 0
-0.14435 1.59858 0
-0.20537 -1.75405 0
-0.194487 -1.76387 0
-0.14573 -1.77157 0
-0.144364 -1.77027 0
-0.136712 -1.66185 0
-0.199366 -1.66112 0
-0.20537 -1.75405 0
0.63146 0.141377 0
0.642885 0.145691 0
0.671583 0.161988 0
0.674925 0.201571 0
0.666623 0.214872 0
0.621322 0.250419 0
0.578276 0.212692 0
0.57738 0.199866 0
0.63146 0.141377 0
-0.536668 1.23065 0
-0.541971 1.34108 0
-0.54812 1.34673 0
-0.639225 1.28632 0
-0.623318 1.26652 0
-0.536668 1.23065 0
-0.109919 1.7678 0
-0.0152733 1.76151 0
-0.0470802 1.84812 0
-0.0826553 1.88323 0
-0.109919 1.7678 0
0.547236 -1.88424 0
0.547236 -2 0
0.598702 -2 0
0.598702 -1.86198 0
0.547236 -1.88424 0
0.471705 -0.865274 0
0.550536 -0.836064 0
0.554397 -0.79247 0
0.528576 -0.764035 0
0.524851 -0.762534 0
0.454847 -0.80296 0
0.471705 -0.865274 0
-0.0034394 1.56767 0
0.0496525 1.60518 0
0.059498 1.62814 0
0.0492606 1.67536 0
0.0160187 1.7153 0
0.00566246 1.7153 0
0.00257381 1.71022 0
-0.00783141 1.62937 0
-0.0034394 1.56767 0
0.728675 -0.07582 0
0.762597 -0.180654 0
0.778118 -0.197362 0
0.816451 -0.135408 0
0.783139 -0.0640486 0
0.728675 -0.07582 0
-0.664359 1.30502 0
-0.639225 1.28632 0
-0.54812 1.34673 0
[...]
CELL_DATA 1225
FIELD FieldData 6
weight 1 1225 float
 -1480 -1480.91 -1480.2 -1480.58 -1481.59 -1479.66 -1479.94 -1480.63 -1480.79 -1480.06 -1479 -1482.37 -1479.94 -1478.98 -1479.58 -1478.83 -1480.47 -1480.75 -1478.82 -1478.78 -1482.16 -1480.07 -1478.79 -1479.02 -1478.79 -1478.92 -1479.95 -1478.79 -1479.58 -1478.78 -1478.95 -1480.48 -1478.92 -1482.37 -1478.79 -1478.94 -1480.84 -1478.95 -1478.79 -1478.92 -1479.93 -1478.79 -1479.79 -1479.96 -1482.39 -1478.78 -1478.93 -1478.9 -1482.15 -1478.78 -1478.78 -1479.52 -1480.62 -1478.9 -1478.79 -1480.79 -1478.78 -1479.81 -1480.03 -1482.18 -1480.05 -1479.52 -1478.91 -1478.79 -1481.95 -1479.49 -1478.88 -1478.78 -1482.38 -1480.58 -1478.79 -1479.76 -1478.87 -1482.17 -1480.04 -1478.78 -1479.42 -1480.05 -1479.41 -1482.37 -1478.78 -1478.88 -1482.38 -1478.78 -1478.78 -1478.85 -1478.79 -1479.58 -1481.99 -1478.79 -1479.51 -1478.85 -1480.63 -1482.37 -1479.51 -1478.78 -1479.95 -1482.17 -1480.04 -1478.85 -1479.58 -1479.51 -1482.17 -1478.85 -1482.37 -1479.44 -1479.53 -1478.82 -1481.97 -1479.89 -1480.46 -1480.01 -1478.83 -1482.39 -1479.65 -1479.54 -1479.4 -1482.16 -1479.51 -1478.81 -1478.83 -1481.96 -1478.82 -1479.89 -1479.36 -1479.84 -1482.39 -1480.39 -1479.38 -1478.81 -1479.45 -1480.05 -1481.96 -1478.81 -1482.17 -1479.43 -1478.81 -1482.39 -1479.88 -1479.35 -1478.81 -1479.91 -1479.42 -1480.27 -1478.8 -1482.38 -1480.04 -1482.15 -1478.8 -1479.39 -1478.8 -1479.41 -1482.18 -1479.8 -1479.38 -1479.79 -1478.81 -1482.38 -1478.8 -1482.15 -1479.38 -1478.8 -1480.31 -1479.39 -1480.08 -1478.8 -1482.18 -1479.84 -1481.97 -1479.51 -1478.8 -1479.81 -1479.33 -1478.8 -1479.27 -1481.93 -1478.79 -1480.25 -1478.8 -1480.05 -1482.16 -1479.81 -1481.96 -1478.79 -1479.54 -1479.36 -1478.79 -1479.81 -1479.26 -1478.8 -1481.75 -1478.79 -1482.16 -1480.18 -1478.79 -1479.41 -1481.95 -1479.26 -1479.26 -1478.79 -1479.74 -1479.72 -1479.9 -1478.79 -1478.79 -1478.8 -1479.26 -1481.77 -1481.73 -1479.3 -1479.44 -1478.79 -1480.37 -1481.57 -1478.79 -1479.68 -1479.84 -1478.79 -1479.6 -1479.25 -1479.2 -1478.79 -1479.43 -1478.79 -1481.76 -1481.57 -1478.79 -1481.74 -1478.79 -1479.26 -1479.68 -1479.24 -1478.79 -1479.76 -1480.31 -1479.44 -1479.88 -1478.91 -1481.74 -1479.29 -1479.2 -1481.57 -1479.66 -1478.89 -1479.29 -1481.56 -1479.68 -1480.28 -1479.83 -1479.2 -1478.9 -1479.23 -1481.56 -1479.22 -1478.85 -1479.65 -1481.75 -1481.79 -1479.21 -1480.13 -1479.18 -1480.07 -1479.6 -1481.57 -1479.21 -1479.71 -1479.19 -1478.84 -1479.3 -1481.93 -1481.75 -1478.85 -1481.95 -1480.04 -1480.16 -1479.59 -1478.81 -1479.56 -1479.46 -1479.35 -1479.56 -1478.8 -1481.93 -1481.76 -1478.8 -1481.75 -1478.8 -1480.03 -1479.55 -1479.94 -1479.91 -1479.19 -1479.5 -1479.37 -1478.78 -1478.78 -1481.77 -1481.58 -1478.8 -1479.18 -1481.74 -1479.61 -1478.8 -1479.49 -1479.98 -1479.94 -1479.56 -1478.79 -1479.98 -1478.78 -1478.78 -1481.77 -1478.78 -1479.56 -1479.43 -1481.57 -1479.45 -1478.78 -1479.46 -1478.78 -1479.94 -1479.93 -1479.72 -1478.78 -1478.78 -1478.88 -1478.78 -1482.37 -1479.39 -1479.45 -1478.78 -1481.56 -1478.89 -1479.51 -1478.78 -1478.78 -1479.71 -1479.83 -1479.93 -1481.54 -1478.79 -1478.88 -1478.79 -1479.46 -1479.41 -1479.5 -1482.16 -1478.9 -1478.79 -1481.58 -1478.78 -1479.75 -1479.81 -1482.38 -1478.85 -1479.87 -1478.8 -1479.46 -1479.36 -1479.46 -1482.37 -1478.8 -1478.84 -1478.8 -1478.8 -1482.38 -1479.62 -1478.81 -1478.78 -1479.33 -1478.82 -1479.83 -1482.37 -1479.28 -1479.35 -1478.78 -1481.53 -1478.8 -1478.78 -1479.99 -1478.78 -1478.8 -1478.78 -1479.62 -1478.83 -1478.78 -1479.37 -1481.98 -1479.32 -1479.35 -1478.78 -1482.15 -1478.83 -1478.78 -1480.02 -1478.78 -1478.83 -1481.41 -1478.78 -1480.06 -1478.78 -1479.33 -1478.82 -1479.2 -1479.77 -1479.38 -1482.17 -1478.88 -1481.93 -1478.93 -1479.37 -1480 -1478.9 -1479.2 -1479.34 -1481.33 -1479.88 -1479.66 -1478.93 -1478.88 -1481.97 -1478.85 -1481.94 -1478.88 -1479.51 -1479.25 -1478.91 -1478.87 -1480.04 -1479.35 -1479.59 -1479.84 -1478.88 -1481.24 -1482.38 -1478.86 -1481.95 -1479.49 -1479.27 -1478.89 -1478.87 -1479.57 -1478.91 -1479.31 -1482.38 -1479.93 -1479.43 -1479.84 -1482.37 -1478.85 -1478.87 -1479.24 -1481.23 -1478.86 -1479.5 -1479.25 -1478.84 -1478.9 -1479.21 -1479.69 -1482.17 -1479.48 -1482.17 -1478.85 -1478.88 -1479.8 -1478.83 -1479.43 -1479.24 -1481.41 -1479.17 -1478.87 -1478.83 -1479.35 -1479.67 -1478.81 -1478.86 -1482.16 -1481.97 -1479.17 -1478.83 -1479.7 -1479.48 -1479.18 -1478.82 -1478.83 -1479.3 -1478.81 -1481.39 -1478.84 -1479.11 -1479.75 -1479.26 -1478.85 -1482.16 -1478.83 -1479.53 -1481.97 -1479.59 -1478.82 -1478.82 -1479.23 -1479.06 -1478.82 -1478.81 -1479.27 -1479.66 -1478.81 -1481.21 -1478.79 -1479.56 -1481.94 -1479.59 -1479.29 -1479.29 -1479.09 -1479.51 -1479.67 -1481.98 -1481.96 -1479.72 -1478.82 -1479.25 -1481.24 -1479.24 -1479.54 -1479.12 -1479.57 -1478.9 -1478.79 -1479.2 -1482.16 -1479.65 -1479.17 -1481.76 -1479.12 -1481.74 -1478.89 -1478.79 -1479.47 -1478.79 -1479.21 -1479.62 -1478.88 -1480.99 -1478.79 -1479.14 -1479.56 -1479.24 -1482.16 -1478.78 -1481.74 -1479.14 -1478.88 -1479.42 -1478.78 -1481.6 -1478.78 -1479.15 -1479.76 -1479.23 -1479.59 -1478.78 -1478.88 -1478.78 -1481.01 -1479.11 -1479.28 -1481.95 -1479.07 -1478.88 -1482.38 -1479.28 -1481.77 -1479.07 -1479.59 -1479.06 -1479.75 -1478.88 -1479.07 -1479.27 -1479.18 -1478.88 -1479.01 -1480.82 -1481.78 -1479.09 -1482.17 -1479.05 -1481.52 -1479.64 -1478.91 -1479.17 -1479.01 -1479.24 -1480.58 -1479.04 -1478.86 -1479.14 -1478.99 -1482.39 -1479.14 -1481.55 -1479.63 -1478.87 -1481.59 -1479.2 -1479 -1478.96 -1479.05 -1480.82 -1478.85 -1479.11 -1480.59 -1478.99 -1478.82 -1481.97 -1479.29 -1479.07 -1479.02 -1479.95 -1478.82 -1481.56 -1481.55 -1479.16 -1479.02 -1478.85 -1478.95 -1478.99 -1481.06 -1479.33 -1482.17 -1479.13 -1478.84 -1478.98 -1480.69 -1478.95 -1478.99 -1479.89 -1478.83 -1481.78 -1481.75 -1478.94 -1479.31 -1478.79 -1478.97 -1479.02 -1478.79 -1478.93 -1481.98 -1478.79 -1481.05 -1479 -1478.93 -1479.35 -1481.59 -1479.94 -1478.79 -1480.58 -1478.95 -1481.78 -1478.8 -1478.96 -1478.95 -1482.39 -1479.2 -1479.14 -1478.8 -1478.94 -1481.6 -1478.81 -1479.83 -1480.8 -1480.65 -1478.96 -1481.78 -1478.8 -1479.23 -1479.13 -1478.79 -1479.11 -1482.39 -1478.79 -1482.37 -1479.01 -1478.78 -1478.78 -1479.11 -1478.78 -1479.13 -1479.53 -1478.99 -1481.56 -1478.79 -1480.05 -1480.74 -1482.37 -1480.46 -1478.79 -1482.17 -1478.79 -1479.16 -1479.13 -1479 -1478.8 -1482.37 -1479.46 -1478.8 -1478.93 -1479.1 -1479.1 -1478.79 -1481.57 -1482.16 -1480.02 -1478.8 -1480.44 -1480.81 -1478.94 -1482.17 -1478.81 -1479.13 -1479.17 -1478.96 -1478.8 -1479.42 -1478.79 -1479.89 -1481.94 -1479.07 -1478.79 -1482.17 -1479.02 -1478.8 -1479.08 -1481.41 -1480.52 -1481.38 -1478.8 -1479.05 -1478.8 -1479.38 -1479.01 -1479.07 -1478.8 -1479.1 -1479.93 -1481.6 -1479.04 -1479.01 -1479.05 -1479.38 -1479.14 -1481.09 -1481.37 -1479.03 -1480.62 -1479.9 -1479.01 -1481.61 -1479.07 -1481.39 -1479.11 -1479.51 -1478.95 -1479.06 -1479.06 -1479.16 -1481.21 -1481.19 -1479.93 -1480.51 -1479 -1479.55 -1481.96 -1481.08 -1479.02 -1479.15 -1479.06 -1479.42 -1479.11 -1479.09 -1481.16 -1480.38 -1481.58 -1481.95 -1479.01 -1481.23 -1479.05 -1481.23 -1479.11 -1479.39 -1478.85 -1479.76 -1482.38 -1479 -1479.1 -1481.43 -1478.88 -1480.32 -1481.74 -1479.4 -1478.95 -1479.07 -1481.03 -1481.35 -1478.88 -1482.38 -1479.04 -1478.87 -1479.1 -1479.25 -1481.25 -1481.78 -1478.86 -1480.29 -1481.97 -1479.11 -1479.04 -1478.87 -1479.2 -1481.34 -1478.83 -1478.95 -1480.9 -1479.03 -1481.78 -1481.36 -1478.84 -1482.15 -1480.1 -1479.35 -1478.83 -1478.96 -1481.36 -1478.81 -1478.96 -1479.31 -1478.92 -1481.34 -1481.97 -1481.95 -1478.83 -1479.77 -1480.89 -1480.19 -1478.83 -1478.92 -1481.18 -1478.82 -1479.33 -1479.02 -1478.96 -1482.16 -1479.64 -1481.56 -1478.92 -1480.75 -1479.35 -1480.3 -1478.99 -1480.9 -1478.86 -1478.96 -1478.94 -1478.91 -1481.18 -1481.77 -1479.22 -1481.39 -1478.91 -1478.94 -1481 -1480.37 -1478.91 -1479.61 -1479.27 -1478.96 -1478.94 -1481.78 -1481.23 -1478.88 -1478.88 -1481.04 -1481.4 -1480.22 -1479.19 -1478.85 -1480.79 -1479.82 -1478.89 -1478.9 -1478.82 -1481.58 -1478.82 -1479.26 -1478.87 -1481.03 -1478.91 -1478.83 -1480.87 -1479.77 -1480.2 -1481.38 -1478.82 -1478.92 -1479.19 -1481.57 -1480.84 -1478.83 -1478.92 -1478.89 -1479.66 -1480.98 -1479.17 -1478.9 -1480.19 -1480.74 -1478.85 -1481.18 -1481.77 -1478.9 -1480.86 -1479.08 -1479.69 -1478.86 -1478.88 -1480.92 -1481.41 -1479.07 -1480.68 -1481.22 -1481.76 -1478.86 -1482.38 -1479.67 -1479.06 -1478.84 -1481.73 -1478.83 -1482.38 -1480.83 -1481.34 -1480.61 -1481.38 -1479.18 -1478.82 -1480.72 -1481.56 -1478.83 -1479.14 -1478.85 -1482.17 -1481.52 -1481.04 -1481.23 -1480.7 -1480.71 -1479.12 -1481.25 -1482.37 -1479.02 -1481.38 -1480.6 -1481.06 -1480.42 -1479.02 -1481.25 -1481.08 -1481.94 -1481.38 -1478.97 -1480.54 -1481.01 -1480.47 -1479.05 -1481.32 -1481.96 -1481.19 -1481.15 -1480.91 -1480.69 -1479.05 -1481.14 -1482.37 -1480.65 -1479.05 -1480.86 -1480.58 -1481.17 -1481.02 -1481.22 -1479.01 -1482.37 -1480.82 -1481.24 -1478.96 -1480.53 -1480.65 -1481.38 -1480.98 -1478.98 -1480.63 -1481.97 -1481.41 -1478.98 -1480.49 -1480.55 -1481.34 -1482.16 -1481.35 -1481.01 -1479.16 -1480.66 -1480.43 -1481.19 -1480.66 -1482.15 -1479.14 -1481.17 -1480.61 -1480.99 -1481.14 -1479.13 -1480.39 -1482.16 -1480.19 -1480.44 -1481.73 -1480.71 -1480.25 -1479.05 -1481.6 -1480.52 -1480.31 -1481.07 -1479.1 -1480.89 -1481.06 -1480.45 -1479.16 -1480.51 -1481.54 -1480.3 -1480.92 -1481.14 -1479.1 -1480.49 -1481.03 -1479.08 -1481.57 -1480.32 -1480.9 -1481.03 -1479.1 -1480.43 -1480.42 -1481.06 -1478.99 -1481.76 -1480.19 -1480.61 -1481.03 -1480.41 -1479.01 -1480.98 -1480.82 -1478.98 -1481.76 -1480.13 -1478.97 -1480.76 -1480.6 -1480.18 -1480.89 -1480.73 -1478.96 -1481.93 -1480.83 -1480.17 -1478.94 -1480.27 -1480.42 -1480.79 -1481.01 -1480.79 -1481.58 -1480.32 -1480.63 -1480.98 -1481.39 -1480.38 -1480.38 -1480.88 -1480.71 -1481.36 -1481.73 -1480.26 -1480.75 -1480.29 -1480.53 -1480.26 -1481.17 -1480.86 -1480.16 -1480.32 -1480.21 -1480.23 -1480.53 -1480.82 -1481.22 -1480.12 -1480.24 -1481.38 -1480.07 -1480.49 -1481.43 -1481.39 -1480.15 -1480.02 -1480.43 -1481.35 -1481.23 -1480.06 -1480.13 -1480.38 -1481.2 -1481.07 -1479.87 -1480.33 -1481.03 -1479.93 -1480.08 -1481.16 -1480.44 -1481.03 -1480.05 -1481.37 -1480.61 -1479.9 -1480.99 -1480.33 -1481.38 -1479.81 -1481.24 -1480.69 -1479.74 -1480.2 -1480.81 -1481.14 -1479.77 -1480.46 -1480.28 -1479.74 -1481.07 -1480.74 -1479.72 -1480.2 -1480.99 -1480.53 -1479.71 -1480.85 -1479.99 -1479.58 -1480.62 -1479.61 -1480.97 -1480.07 -1479.76 -1480.69 -1480.74 -1479.9 -1479.8 -1480.6 -1479.68 -1479.91 -1480.84 -1479.59 -1479.81 -1479.67 -1480.64 -1480.82 -1479.62 -1480.04 -1480.45 -1480.06 -1480.61 -1480 -1480.43 -1480.08 -1480.57 -1479.9 -1480.38 -1480.51 -1479.87 -1480.33 -1480.41 -1479.77 -1480.29 -1480.44 -1479.69 -1480.32 -1479.67 -1480.67 -1480.19 -1480.58 -1480.16 -1480.57 -1480.32 -1480.65 -1480.24 -1480.53 -1480.3 -1480.44 -1480.1 -1480.46 -1480.25 -1480.25 -1480.33 -1480.1 -1480.07 -1480.18 -1480.17 -1480.21 -1480.06
num 1 1225 float
 503 304 463 373 152 587 538 339 303 490 846 13 539 917 623 1016 408 338 1123 1202 49 456 1198 848 1164 915 504 1200 658 1167 881 374 985 14 1133 971 306 882 1098 986 505 1099 589 525 0 1168 918 951 48 1204 1169 657 340 987 1171 305 1206 554 492 35 470 674 988 1135 84 693 952 1101 27 376 1102 590 1022 36 457 1136 708 472 692 16 1205 953 28 1137 1172 1058 1203 659 70 1170 675 1019 341 15 695 1207 506 62 491 1054 625 641 37 1055 17 683 660 1088 97 540 375 493 1020 1 626 642 694 52 648 1056 1057 98 1021 542 711 527 2 411 729 1092 684 486 85 1023 63 712 1120 3 507 764 1050 528 718 443 1121 29 521 50 1191 676 1156 696 39 577 685 560 1052 30 1122 51 677 1087 409 730 487 1157 38 541 99 650 1155 526 709 1190 727 83 1158 444 1192 522 64 576 72 1193 652 744 1124 561 762 1089 118 1160 65 478 1091 720 71 779 763 1159 575 596 557 1125 1090 1126 745 119 132 728 651 1196 410 140 1127 608 556 1161 630 781 832 1197 686 1128 134 153 1195 105 1194 710 573 797 1162 562 445 687 558 989 133 746 799 154 609 954 719 141 563 446 592 782 955 798 167 753 990 574 120 106 766 480 754 488 597 168 747 612 800 1040 755 87 107 1006 100 523 481 598 1110 610 643 721 663 1074 86 135 1069 108 1105 508 645 529 559 791 678 731 1139 1104 121 169 1071 756 109 611 1141 679 509 524 628 1142 495 1174 1103 122 1173 646 688 142 644 1208 698 1210 530 510 591 1209 1175 1025 1140 18 714 733 1212 155 991 653 1176 1211 627 565 544 143 1109 1026 1144 647 699 654 54 956 1178 156 1107 593 566 4 992 543 1075 682 697 689 19 1111 1059 1129 1076 5 661 1094 1180 757 1024 545 20 765 680 1146 157 1130 1143 496 1213 1060 1177 662 1061 1179 722 73 732 681 1145 53 1096 1181 475 1216 1027 184 1214 497 1215 759 1062 802 594 715 40 959 88 1007 724 511 994 767 751 185 531 629 973 995 75 1064 89 1041 655 748 926 1042 477 769 664 532 1031 219 6 1077 90 690 713 961 1008 595 927 734 7 546 691 533 21 1065 1043 749 220 1032 665 768 993 975 783 578 41 656 56 1028 1010 564 1063 701 804 186 819 974 1029 725 613 1134 1009 55 76 833 1066 600 666 750 1078 996 723 1113 187 997 866 579 716 1080 57 1067 667 77 599 1044 1030 793 867 1079 1100 785 580 1081 221 1093 631 91 635 717 758 868 632 614 78 92 567 1150 786 222 794 633 869 649 1011 1199 787 43 603 829 136 834 123 1012 1163 668 1095 752 615 977 254 1201 801 636 796 42 1097 124 814 1045 703 1132 170 1131 835 581 761 601 1165 1047 1166 255 780 700 74 870 1048 31 726 125 897 638 884 582 1013 871 736 760 979 928 289 110 815 66 905 158 616 978 795 859 735 359 902 1083 817 929 32 788 144 617 1014 159 771 936 894 851 290 1046 824 358 930 1082 101 773 816 938 512 1153 145 160 789 895 1049 937 849 256 737 67 790 1084 932 324 972 920 547 1118 126 111 966 702 1147 903 850 1112 931 103 1183 257 939 919 739 161 513 1148 360 967 112 1149 904 883 34 806 792 1115 940 162 1116 584 291 325 885 113 1151 738 828 1114 836 33 1220 22 886 1182 1217 864 1218 837 634 852 146 1184 479 326 23 394 1185 68 1219 830 803 887 1152 24 669 1117 921 865 872 1187 147 69 515 1222 395 292 957 58 1119 831 838 922 1154 704 1186 549 102 823 1221 59 898 1223 853 175 361 188 1188 893 1224 705 863 873 1189 854 550 171 858 862 909 670 784 246 189 860 327 514 899 172 818 179 825 637 968 874 888 826 223 210 516 362 900 602 93 247 889 827 839 706 820 861 211 396 173 94 901 224 896 212 855 672 1033 548 25 941 856 176 965 428 137 673 935 857 245 191 1000 26 906 1002 822 775 213 138 1036 429 95 821 907 1037 740 190 1068 976 280 891 139 177 1034 60 464 671 1070 958 192 1138 942 742 923 178 96 104 1035 583 281 465 1001 924 225 1106 743 943 890 61 618 174 933 320 707 430 925 282 1003 908 960 969 226 128 741 203 934 892 253 397 970 619 776 944 962 127 227 1005 980 248 202 431 777 1038 286 585 998 945 1072 163 1108 778 981 258 999 1004 283 551 432 204 1073 912 770 164 287 1039 964 982 620 259 805 1018 467 318 963 237 130 983 288 840 621 1053 948 293 180 841 328 238 129 984 8 586 876 1015 131 1085 9 294 181 363 205 807 1051 342 165 1086 772 1017 44 166 260 214 329 343 808 239 10 911 193 377 262 398 910 240 249 79 194 875 378 261 364 877 195 80 241 215 295 345 878 228 11 330 843 296 379 229 272 217 842 12 297 230 946 380 331 182 271 913 316 81 196 947 381 367 197 45 183 273 774 315 412 231 332 46 810 216 351 274 232 845 413 47 482 400 114 317 447 844 149 365 448 252 809 307 263 386 813 366 148 449 308 218 847 350 264 811 150 399 309 250 812 385 414 265 914 116 433 352 251 415 880 275 298 879 115 468 949 334 353 450 285 344 950 82 299 434 916 451 387 310 267 284 151 401 346 266 206 388 402 300 347 207 117 420 335 437 382 436 242 301 455 421 435 422 383 302 243 471 423 198 498 384 208 199 458 499 416 209 234 500 459 417 244 268 535 452 276 501 494 233 418 277 466 200 354 502 278 419 201 537 236 319 568 454 311 235 534 355 453 570 270 348 604 489 269 356 569 312 517 639 321 640 279 483 572 322 349 553 536 357 606 518 314 605 588 571 323 313 607 484 391 469 333 519 393 485 369 520 389 368 555 424 403 552 425 405 624 390 622 336 460 371 461 372 392 337 427 370 426 406 462 407 438 439 404 474 473 440 441 442 476
kind 1 1225 float
 0 0 0 0 0 0 0 0 0 0 0 0 0 0 0 0 0 0 0 0 0 0 0 0 0 0 0 0 0 0 0 0 0 0 0 0 0 0 0 0 0 0 0 0 0 0 0 0 0 0 0 0 0 0 0 0 0 0 0 0 0 0 0 0 0 0 0 0 0 0 0 0 0 0 0 0 0 0 0 0 0 0 0 0 0 0 0 0 0 0 0 0 0 0 0 0 0 0 0 0 0 0 0 0 0 0 0 0 0 0 0 0 0 0 0 0 0 0 0 0 0 0 0 0 0 0 0 0 0 0 0 0 0 0 0 0 0 0 0 0 0 0 0 0 0 0 0 0 0 0 0 0 0 0 0 0 0 0 0 0 0 0 0 0 0 0 0 0 0 0 0 0 0 0 0 0 0 0 0 0 0 0 0 0 0 0 0 0 0 0 0 0 0 0 0 0 0 0 0 0 0 0 0 0 0 0 0 0 0 0 0 0 0 0 0 0 0 0 0 0 0 0 0 0 0 0 0 0 0 0 0 0 0 0 0 0 0 0 0 0 0 0 0 0 0 0 0 0 0 0 0 0 0 0 0 0 0 0 0 0 0 0 0 0 0 0 0 0 0 0 0 0 0 0 0 0 0 0 0 0 0 0 0 0 0 0 0 0 0 0 0 0 0 0 0 0 0 0 0 0 0 0 0 0 0 0 0 0 0 0 0 0 0 0 0 0 0 0 0 0 0 0 0 0 0 0 0 0 0 0 0 0 0 0 0 0 0 0 0 0 0 0 0 0 0 0 0 0 0 0 0 0 0 0 0 0 0 0 0 0 0 0 0 0 0 0 0 0 0 0 0 0 0 0 0 0 0 0 0 0 0 0 0 0 0 0 0 0 0 0 0 0 0 0 0 0 0 0 0 0 0 0 0 0 0 0 0 0 0 0 0 0 0 0 0 0 0 0 0 0 0 0 0 0 0 0 0 0 0 0 0 0 0 0 0 0 0 0 0 0 0 0 0 0 0 0 0 0 0 0 0 0 0 0 0 0 0 0 0 0 0 0 0 0 0 0 0 0 0 0 0 0 0 0 0 0 0 0 0 0 0 0 0 0 0 0 0 0 0 0 0 0 0 0 0 0 0 0 0 0 0 0 0 0 0 0 0 0 0 0 0 0 0 0 0 0 0 0 0 0 0 0 0 0 0 0 0 0 0 0 0 0 0 0 0 0 0 0 0 0 0 0 0 0 0 0 0 0 0 0 0 0 0 0 0 0 0 0 0 0 0 0 0 0 0 0 0 0 0 0 0 0 0 0 0 0 0 0 0 0 0 0 0 0 0 0 0 0 0 0 0 0 0 0 0 0 0 0 0 0 0 0 0 0 0 0 0 0 0 0 0 0 0 0 0 0 0 0 0 0 0 0 0 0 0 0 0 0 0 0 0 0 0 0 0 0 0 0 0 0 0 0 0 0 0 0 0 0 0 0 0 0 0 0 0 0 0 0 0 0 0 0 0 0 0 0 0 0 0 0 0 0 0 0 0 0 0 0 0 0 0 0 0 0 0 0 0 0 0 0 0 0 0 0 0 0 0 0 0 0 0 0 0 0 0 0 0 0 0 0 0 0 0 0 0 0 0 0 0 0 0 0 0 0 0 0 0 0 0 0 0 0 0 0 0 0 0 0 0 0 0 0 0 0 0 0 0 0 0 0 0 0 0 0 0 0 0 0 0 0 0 0 0 0 0 0 0 0 0 0 0 0 0 0 0 0 0 0 0 0 0 0 0 0 0 0 0 0 0 0 0 0 0 0 0 0 0 0 0 0 0 0 0 0 0 0 0 0 0 0 0 0 0 0 0 0 0 0 0 0 0 0 0 0 0 0 0 0 0 0 0 0 0 0 0 0 0 0 0 0 0 0 0 0 0 0 0 0 0 0 0 0 0 0 0 0 0 0 0 0 0 0 0 0 0 0 0 0 0 0 0 0 0 0 0 0 0 0 0 0 0 0 0 0 0 0 0 0 0 0 0 0 0 0 0 0 0 0 0 0 0 0 0 0 0 0 0 0 0 0 0 0 0 0 0 0 0 0 0 0 0 0 0 0 0 0 0 0 0 0 0 0 0 0 0 0 0 0 0 0 0 0 0 0 0 0 0 0 0 0 0 0 0 0 0 0 0 0 0 0 0 0 0 0 0 0 0 0 0 0 0 0 0 0 0 0 0 0 0 0 0 0 0 0 0 0 0 0 0 0 0 0 0 0 0 0 0 0 0 0 0 0 0 0 0 0 0 0 0 0 0 0 0 0 0 0 0 0 0 0 0 0 0 0 0 0 0 0 0 0 0 0 0 0 0 0 0 0 0 0 0 0 0 0 0 0 0 0 0 0 0 0 0 0 0 0 0 0 0 0 0 0 0 0 0 0 0 0 0 0 0 0 0 0 0 0 0 0 0 0 0 0 0 0 0 0 0 0 0 0 0 0 0 0 0 0 0 0 0 0 0 0 0 0 0 0 0 0 0 0 0 0 0 0 0 0 0 0 0 0 0 0 0 0 0 0 0 0 0 0 0 0 0 0 0 0 0 0 0 0 0 0 0 0 0 0 0 0 0 0 0 0 0 0 0 0 0 0 0 0 0 0 0 0 0 0 0 0 0 0 0 0 0 0 0 0 0 0 0 0 0 0 0 0 0 0 0 0 0 0 0 0 0 0 0 0 0 0 0 0 0 0 0 0 0 0 0 0 0 0 0 0 0 0 0 0 0 0 0 0 0 0 0 0 0
centroid_x 1 1225 float