# vtk DataFile Version 3.0
vtk output
ASCII
DATASET UNSTRUCTURED_GRID
POINTS 1529 double
-1 -0.715073 0
-0.983421 -0.709687 0
-1 -0.666568 0
-1 -0.715073 0
-1 -0.666568 0
-0.983421 -0.709687 0
-0.968699 -0.72167 0
-0.911084 -0.723046 0
-0.861532 -0.646366 0
-0.894812 -0.584884 0
-1 -0.563983 0
-1 -0.666568 0
-1 -0.356923 0
-0.983617 -0.366598 0
-0.892444 -0.352985 0
-0.899366 -0.231296 0
-0.972789 -0.204476 0
-1 -0.243612 0
-1 -0.356923 0
-0.987924 -1 0
-0.845199 -1 0
-0.851855 -0.865902 0
-0.985167 -0.876635 0
-0.987924 -1 0
-0.567857 -0.735328 0
-0.564103 -0.738515 0
-0.465184 -0.746525 0
-0.447541 -0.729047 0
-0.46437 -0.613892 0
-0.481184 -0.598586 0
-0.586541 -0.596179 0
-0.593198 -0.60422 0
-0.567857 -0.735328 0
-1 -0.523519 0
-0.866899 -0.427706 0
-0.877363 -0.364703 0
-0.892444 -0.352985 0
-0.983617 -0.366598 0
-1 -0.40122 0
-1 -0.523519 0
0.724839 0.601975 0
0.845915 0.600576 0
0.89501 0.735796 0
0.883975 0.745806 0
0.725916 0.700472 0
0.720665 0.605942 0
0.724839 0.601975 0
-0.845199 -1 0
-0.727913 -1 0
-0.709563 -0.87719 0
-0.720843 -0.863193 0
-0.850406 -0.863725 0
-0.851855 -0.865902 0
-0.845199 -1 0
-0.592272 -0.0818611 0
-0.481101 -0.0876536 0
-0.470663 -0.0762111 0
-0.471871 0.0430482 0
-0.481269 0.0511892 0
-0.620213 0.0267074 0
-0.613774 -0.0623815 0
-0.592272 -0.0818611 0
-0.717071 -0.720214 0
-0.702953 -0.735289 0
-0.567857 -0.735328 0
-0.593198 -0.60422 0
-0.719191 -0.614656 0
-0.728518 -0.630338 0
-0.717071 -0.720214 0
0.0628736 -0.350698 0
0.0810245 -0.369559 0
0.219497 -0.287329 0
0.197405 -0.208802 0
0.0782272 -0.202549 0
0.0628736 -0.350698 0
-0.61278 -1 0
-0.406857 -1 0
-0.457272 -0.882379 0
-0.561105 -0.888024 0
-0.61278 -1 0
-0.877363 -0.364703 0
-0.866899 -0.427706 0
-0.799213 -0.493122 0
-0.75391 -0.501308 0
-0.736787 -0.48464 0
-0.736727 -0.328135 0
-0.738975 -0.325927 0
-0.877363 -0.364703 0
-0.36073 0.436702 0
-0.345686 0.414997 0
-0.210128 0.425316 0
-0.196562 0.439211 0
-0.226586 0.550731 0
-0.327868 0.552808 0
-0.36073 0.436702 0
-1 -1 0
-0.987924 -1 0
-0.985167 -0.876635 0
-1 -0.858396 0
-1 -1 0
0.860325 0.342937 0
0.878554 0.323987 0
1 0.348381 0
1 0.468983 0
0.893243 0.457956 0
0.860325 0.342937 0
0.851448 0.0977226 0
0.906763 0.0649696 0
0.992771 0.111213 0
0.983185 0.204062 0
0.882789 0.228719 0
0.853204 0.200951 0
0.851448 0.0977226 0
0.845915 0.600576 0
0.866028 0.580081 0
1 0.593987 0
1 0.639618 0
0.971055 0.719704 0
0.962878 0.726092 0
0.89501 0.735796 0
0.845915 0.600576 0
-1 -0.563983 0
-0.894812 -0.584884 0
-0.799213 -0.493122 0
-0.866899 -0.427706 0
-1 -0.523519 0
-1 -0.563983 0
-0.727913 -1 0
-0.61278 -1 0
-0.561105 -0.888024 0
-0.589966 -0.857409 0
-0.709563 -0.87719 0
-0.727913 -1 0
-0.736787 -0.48464 0
-0.620396 -0.480178 0
-0.608746 -0.347121 0
-0.609466 -0.346309 0
-0.736727 -0.328135 0
-0.736787 -0.48464 0
0.883975 0.745806 0
0.89501 0.735796 0
0.962878 0.726092 0
0.990634 0.8803 0
0.978067 0.892287 0
0.863402 0.887987 0
0.850215 0.837762 0
0.883975 0.745806 0
-0.894812 -0.584884 0
-0.861532 -0.646366 0
-0.728518 -0.630338 0
-0.719191 -0.614656 0
-0.75391 -0.501308 0
-0.799213 -0.493122 0
-0.894812 -0.584884 0
-1 -0.853363 0
-0.968699 -0.72167 0
-0.983421 -0.709687 0
-1 -0.715073 0
-1 -0.853363 0
-0.864869 -0.767114 0
-0.850406 -0.863725 0
-0.720843 -0.863193 0
-0.702953 -0.735289 0
-0.717071 -0.720214 0
-0.864869 -0.767114 0
-0.620396 -0.480178 0
-0.609549 -0.491704 0
-0.460623 -0.44346 0
-0.466224 -0.355533 0
-0.608746 -0.347121 0
-0.620396 -0.480178 0
-0.758417 -0.10507 0
-0.748947 -0.113703 0
-0.613774 -0.0623815 0
-0.620213 0.0267074 0
-0.623283 0.0296886 0
-0.743018 0.0577316 0
-0.758417 -0.10507 0
0.962878 0.726092 0
0.971055 0.719704 0
1 0.729214 0
1 0.879199 0
0.990634 0.8803 0
0.962878 0.726092 0
-0.75391 -0.501308 0
-0.719191 -0.614656 0
-0.593198 -0.60422 0
-0.586541 -0.596179 0
-0.609549 -0.491704 0
-0.620396 -0.480178 0
-0.736787 -0.48464 0
-0.75391 -0.501308 0
-1 -0.858396 0
-0.985167 -0.876635 0
-0.851855 -0.865902 0
-0.850406 -0.863725 0
-0.864869 -0.767114 0
-0.911084 -0.723046 0
-0.968699 -0.72167 0
-1 -0.853363 0
-1 -0.858396 0
-0.899366 -0.231296 0
-0.892444 -0.352985 0
-0.877363 -0.364703 0
-0.738975 -0.325927 0
-0.745891 -0.234829 0
-0.89386 -0.227972 0
-0.899366 -0.231296 0
-0.07278 0.323485 0
-0.0675475 0.20366 0
-0.0634705 0.199973 0
0.0593447 0.211562 0
0.0636604 0.323453 0
0.0420055 0.342724 0
-0.0617021 0.342017 0
-0.07278 0.323485 0
-0.0766166 -0.428402 0
-0.0213181 -0.47698 0
0.0700329 -0.467963 0
0.0949546 -0.434538 0
0.0810245 -0.369559 0
0.0628736 -0.350698 0
-0.0356302 -0.336553 0
-0.0766166 -0.428402 0
-0.609549 -0.491704 0
-0.586541 -0.596179 0
-0.481184 -0.598586 0
-0.446954 -0.461602 0
-0.460623 -0.44346 0
-0.609549 -0.491704 0
0.990634 0.8803 0
1 0.879199 0
1 0.998656 0
0.978067 0.892287 0
0.990634 0.8803 0
-0.469393 -0.207914 0
-0.331043 -0.194343 0
-0.334541 -0.077302 0
-0.470663 -0.0762111 0
-0.481101 -0.0876536 0
-0.469393 -0.207914 0
-0.720843 -0.863193 0
-0.709563 -0.87719 0
-0.589966 -0.857409 0
-0.564103 -0.738515 0
-0.567857 -0.735328 0
-0.702953 -0.735289 0
-0.720843 -0.863193 0
-0.609466 -0.346309 0
-0.608746 -0.347121 0
-0.466224 -0.355533 0
-0.45046 -0.337239 0
-0.473318 -0.213542 0
-0.588308 -0.231629 0
-0.609466 -0.346309 0
0.0794047 0.645951 0
0.0486709 0.670968 0
-0.0635691 0.503632 0
-0.0616765 0.490621 0
0.0590687 0.46629 0
0.0785659 0.476896 0
0.0794047 0.645951 0
0.193285 0.786971 0
0.236045 0.882883 0
0.19532 0.914109 0
0.0350288 0.840256 0
0.0567448 0.769215 0
0.193285 0.786971 0
-0.447541 -0.729047 0
-0.320598 -0.722224 0
-0.311906 -0.607993 0
-0.332751 -0.58612 0
-0.46437 -0.613892 0
-0.447541 -0.729047 0
-0.589966 -0.857409 0
-0.561105 -0.888024 0
-0.457272 -0.882379 0
-0.441167 -0.853525 0
-0.465184 -0.746525 0
-0.564103 -0.738515 0
-0.589966 -0.857409 0
0.210692 -0.186029 0
0.197405 -0.208802 0
0.219497 -0.287329 0
0.231742 -0.299107 0
0.353323 -0.289115 0
0.368821 -0.191816 0
0.346295 -0.169247 0
0.210692 -0.186029 0
-0.738975 -0.325927 0
-0.736727 -0.328135 0
-0.609466 -0.346309 0
-0.588308 -0.231629 0
-0.614086 -0.209747 0
-0.734456 -0.216541 0
-0.745891 -0.234829 0
-0.738975 -0.325927 0
0.193285 0.786971 0
0.214389 0.733041 0
0.312215 0.698503 0
0.315038 0.701108 0
0.33507 0.824852 0
0.2719 0.878875 0
0.236045 0.882883 0
0.193285 0.786971 0
-0.331043 -0.194343 0
-0.326001 -0.199744 0
-0.205551 -0.206144 0
-0.203103 -0.203205 0
-0.195259 -0.068747 0
-0.328693 -0.0702239 0
-0.334541 -0.077302 0
-0.331043 -0.194343 0
-0.320598 -0.722224 0
-0.30644 -0.733248 0
-0.234709 -0.74185 0
-0.172584 -0.686669 0
-0.194895 -0.585576 0
-0.311906 -0.607993 0
-0.320598 -0.722224 0
-0.303365 -1 0
-0.128476 -1 0
-0.174179 -0.869995 0
-0.176484 -0.868477 0
-0.303328 -0.902835 0
-0.303365 -1 0
-0.128476 -1 0
-0.0898454 -1 0
-0.025305 -0.827505 0
-0.0747208 -0.790589 0
-0.174179 -0.869995 0
-0.128476 -1 0
-0.3322 -0.472144 0
-0.331477 -0.473012 0
-0.194646 -0.472821 0
-0.177729 -0.439468 0
-0.211121 -0.340536 0
-0.321386 -0.34093 0
-0.3322 -0.472144 0
0.315038 0.701108 0
0.448946 0.686001 0
0.471758 0.769638 0
0.440705 0.826011 0
0.33507 0.824852 0
0.315038 0.701108 0
-0.992414 -0.0704934 0
-0.874576 -0.079908 0
-0.852346 0.0526877 0
-0.90477 0.0891338 0
-0.919447 0.0877893 0
-0.928859 0.0869272 0
-0.933878 0.0864674 0
-0.936003 0.0862727 0
-0.940291 0.0858799 0
-0.942764 0.0856534 0
-0.944522 0.0854923 0
-0.946743 0.0852889 0
-0.948612 0.0851177 0
-0.94996 0.0849942 0
-0.953379 0.084681 0
-0.953407 0.0846784 0
-0.955628 0.084475 0
-0.956159 0.0844264 0
-0.958588 0.0842039 0
-0.992414 -0.0704934 0
0.0593447 0.211562 0
0.076102 0.195607 0
0.200245 0.198335 0
0.200282 0.198373 0
0.192082 0.323147 0
0.177178 0.336229 0
0.0636604 0.323453 0
0.0593447 0.211562 0
0.205195 0.581216 0
0.13267 0.637288 0
0.0794047 0.645951 0
0.0785659 0.476896 0
0.175826 0.463224 0
0.205195 0.581216 0
-0.406857 -1 0
-0.303365 -1 0
-0.303328 -0.902835 0
-0.335604 -0.864791 0
-0.441167 -0.853525 0
-0.457272 -0.882379 0
-0.406857 -1 0
-0.441167 -0.853525 0
-0.335604 -0.864791 0
-0.30644 -0.733248 0
-0.320598 -0.722224 0
-0.447541 -0.729047 0
-0.465184 -0.746525 0
-0.441167 -0.853525 0
-0.460623 -0.44346 0
-0.446954 -0.461602 0
-0.3322 -0.472144 0
-0.321386 -0.34093 0
-0.33275 -0.331151 0
-0.45046 -0.337239 0
-0.466224 -0.355533 0
-0.460623 -0.44346 0
0.0949546 -0.434538 0
0.219939 -0.449571 0
0.241586 -0.441321 0
0.231742 -0.299107 0
0.219497 -0.287329 0
0.0810245 -0.369559 0
0.0949546 -0.434538 0
0.17707 0.461867 0
0.308859 0.453184 0
0.33811 0.567822 0
0.29805 0.600199 0
0.205195 0.581216 0
0.175826 0.463224 0
0.17707 0.461867 0
-0.303328 -0.902835 0
-0.176484 -0.868477 0
-0.234709 -0.74185 0
-0.30644 -0.733248 0
-0.335604 -0.864791 0
-0.303328 -0.902835 0
0.200282 0.198373 0
0.331737 0.201845 0
0.328446 0.33128 0
0.318801 0.341323 0
0.192082 0.323147 0
0.200282 0.198373 0
0.308859 0.453184 0
0.320748 0.437833 0
0.467776 0.463122 0
0.482743 0.492047 0
0.444407 0.579564 0
0.33811 0.567822 0
0.308859 0.453184 0
-0.172584 -0.686669 0
-0.109394 -0.703222 0
-0.025408 -0.613907 0
-0.0613714 -0.556526 0
-0.181454 -0.557838 0
-0.194895 -0.585576 0
-0.172584 -0.686669 0
-0.203103 -0.203205 0
-0.0502508 -0.179996 0
-0.0628179 -0.0698826 0
-0.0630881 -0.0696247 0
-0.19048 -0.0643726 0
-0.195259 -0.068747 0
-0.203103 -0.203205 0
0.241586 -0.441321 0
0.327031 -0.473478 0
0.330525 -0.468881 0
0.358342 -0.295381 0
0.353323 -0.289115 0
0.231742 -0.299107 0
0.241586 -0.441321 0
-0.177729 -0.439468 0
-0.0766166 -0.428402 0
-0.0356302 -0.336553 0
-0.0601936 -0.304582 0
-0.193587 -0.313045 0
-0.211121 -0.340536 0
-0.177729 -0.439468 0
-0.481184 -0.598586 0
-0.46437 -0.613892 0
-0.332751 -0.58612 0
-0.331477 -0.473012 0
-0.3322 -0.472144 0
-0.446954 -0.461602 0
-0.481184 -0.598586 0
0.331737 0.201845 0
0.333292 0.200455 0
0.459581 0.212533 0
0.475535 0.341287 0
0.328446 0.33128 0
0.331737 0.201845 0
-0.334541 -0.077302 0
-0.328693 -0.0702239 0
-0.334544 0.0335153 0
-0.36668 0.0609183 0
-0.471871 0.0430482 0
-0.470663 -0.0762111 0
-0.334541 -0.077302 0
[...]
CELL_DATA 178
FIELD FieldData 6
weight 1 178 float
 1.43342 1.4288 1.42649 1.44009 1.42124 1.42689 1.42876 1.43814 1.42183 1.4249 1.41957 1.44467 1.42248 1.43096 1.44121 1.42291 1.42349 1.42566 1.42799 1.44016 1.42194 1.43246 1.42784 1.43716 1.4352 1.42283 1.42574 1.43555 1.42144 1.43632 1.42237 1.41663 1.42222 1.42327 1.44523 1.41855 1.43319 1.42078 1.42272 1.42828 1.42311 1.43049 1.42012 1.42082 1.42943 1.41754 1.42405 1.43069 1.43471 1.42041 1.42675 1.42884 1.41629 1.42256 1.43308 1.4271 1.42074 1.42068 1.42183 1.42927 1.41639 1.41947 1.42835 1.41822 1.42334 1.42144 1.42382 1.41761 1.41897 1.42307 1.4295 1.41875 1.42855 1.41661 1.41778 1.43134 1.41769 1.42828 1.41776 1.42603 1.43359 1.42387 1.4252 1.42853 1.41734 1.42598 1.42254 1.41992 1.42004 1.4165 1.41788 1.42791 1.42459 1.42474 1.42866 1.41838 1.4185 1.42402 1.42541 1.41865 1.4248 1.42689 1.42578 1.43181 1.42423 1.4303 1.41714 1.42854 1.42589 1.42518 1.43544 1.42691 1.42111 1.43357 1.43249 1.43875 1.4216 1.44422 1.44107 1.41914 1.42971 1.4174 1.43151 1.43828 1.42345 1.42063 1.42302 1.43328 1.43539 1.42815 1.43389 1.42631 1.42684 1.42453 1.42309 1.43674 1.42012 1.42746 1.42336 1.42935 1.4257 1.42045 1.41939 1.4327 1.42108 1.41695 1.424 1.42826 1.43601 1.41639 1.43533 1.41954 1.42256 1.43302 1.43228 1.42437 1.42008 1.429 1.42717 1.42906 1.42578 1.42602 1.42073 1.41603 1.41869 1.41691 1.41867 1.41621 1.4204 1.41649 1.4156 1.41654 1.42109 1.43446 1.42008 1.4194 1.42059 1.43617
num 1 178 float
 34 35 77 7 38 63 188 8 108 37 85 10 64 166 6 161 133 189 49 9 65 203 50 20 22 66 107 204 51 21 78 140 70 52 218 95 23 80 168 197 39 24 86 79 198 96 40 12 13 68 199 105 141 169 11 25 67 71 170 26 142 171 41 97 72 69 53 143 109 54 27 81 183 112 110 36 82 184 154 62 181 185 55 120 98 76 173 83 172 99 155 121 174 92 182 156 100 175 122 157 211 187 87 212 186 200 144 213 91 167 216 88 146 201 202 214 94 217 215 145 73 158 190 14 93 159 160 74 28 106 135 119 134 89 147 44 101 58 102 150 136 123 124 29 104 111 103 43 195 125 59 117 138 42 210 137 84 151 56 196 152 57 153 113 115 114 139 127 116 126 128 129 118 165 131 130 132 180
kind 1 178 float
 0 0 0 0 0 0 0 0 0 0 0 0 0 0 0 0 0 0 0 0 0 0 0 0 0 0 0 0 0 0 0 0 0 0 0 0 0 0 0 0 0 0 0 0 0 0 0 0 0 0 0 0 0 0 0 0 0 0 0 0 0 0 0 0 0 0 0 0 0 0 0 0 0 0 0 0 0 0 0 0 0 0 0 0 0 0 0 0 0 0 0 0 0 0 0 0 0 0 0 0 0 0 0 0 0 0 0 0 0 0 0 0 0 0 0 0 0 0 0 0 0 0 0 0 0 0 0 0 0 0 0 0 0 0 0 0 0 0 0 0 0 0 0 0 0 0 0 0 0 0 0 0 0 0 0 0 0 0 0 0 0 0 0 0 0 0 0 0 0 0 0 0 0 0 0 0 0 0
centroid_x 1 178 float
 -0.994474 -0.940118 -0.948955 -0.916534 -0.518781 -0.942434 0.802845 -0.783339 -0.540321 -0.649772 0.131936 -0.508694 -0.794671 -0.279358 -0.993385 0.936455 0.917499 0.926855 -0.902113 -0.649022 -0.677146 0.92198 -0.801839 -0.989233 -0.7801 -0.545227 -0.690918 0.986649 -0.669038 -0.926388 -0.824006 -0.00557166 0.011985 -0.526246 0.992576 -0.405517 -0.646269 -0.5276 0.0265563 0.137986 -0.384753 -0.515762 0.285468 -0.667827 0.266869 -0.265202 -0.249876 -0.222697 -0.100224 -0.259273 0.393338 -0.920154 0.129665 0.132988 -0.373186 -0.385209 -0.392488 0.172167 0.259043 -0.264552 0.264171 0.393596 -0.117639 -0.130337 0.293394 -0.125398 -0.40222 0.398579 -0.401205 -0.261768 -0.153245 -0.395458 0.123912 0.00412299 -0.257641 -0.809392 -0.265202 0.23148 -0.0158953 -0.994539 -0.138079 0.378837 -0.114094 -0.824039 0.0128382 -0.99093 0.653776 -0.122456 0.526221 0.140869 0.112251 -0.674747 0.790732 -0.810317 -0.0517634 0.245753 0.277057 0.934065 -0.549623 0.399266 0.0988915 0.654979 0.434127 0.261535 0.522176 0.522954 0.532631 0.372127 -0.934406 -0.150657 0.780017 0.554165 0.813142 0.645186 0.78424 0.492652 -0.541099 0.906711 0.672407 0.691086 0.40775 0.534628 0.990352 0.00119511 -0.668389 0.661304 0.812269 0.576383 0.0279302 -0.805833 -0.793055 0.958545 0.993788 0.690806 0.944124 0.316105 0.417282 0.254108 0.568523 -0.55585 -0.564165 -0.430452 -0.286443 0.15153 0.798355 -0.126147 0.667225 0.152853 -0.151972 -0.131726 0.436613 0.693858 -0.298804 -0.00772347 -0.0361071 -0.408865 0.0118036 -0.435219 0.0202788 -0.00868038 -0.278362 0.140249 -0.145257 0.145499 0.418859 0.282749 -0.144752 0.133951 0.53936 0.00510689 0.269201 0.41198 0.839385 -0.4071 0.664528 0.562386 0.783344 -0.264678
centroid_y 1 178 float
 -0.697109 -0.644623 -0.290457 -0.936314 -0.669437 -0.42316 0.666319 -0.929685 -0.0210252 -0.673116 -0.274352 -0.948894 -0.411491 0.481157 -0.931264 0.396368 0.149219 0.65043 -0.513954 -0.930923 -0.408515 0.817891 -0.578116 -0.760479 -0.799739 -0.412034 -0.0253922 0.786424 -0.545726 -0.805443 -0.289629 0.273823 -0.40906 -0.526226 0.921952 -0.138596 -0.800765 -0.29019 0.550836 0.835506 -0.660344 -0.816974 -0.233841 -0.274111 0.791024 -0.13525 -0.66511 -0.944653 -0.892376 -0.40991 0.757187 0.0010932 0.262704 0.551221 -0.927323 -0.788475 -0.399142 -0.380905 0.523231 -0.821716 0.266845 0.50773 -0.620069 -0.131001 -0.371539 -0.367018 -0.536712 0.272863 -0.0131531 -0.535276 -0.768882 -0.265109 0.717186 0.00351384 -0.00524094 -0.695819 -0.272656 0.653272 0.414224 -0.374914 0.677333 0.634026 -0.495077 0.122475 -0.124866 -0.208069 0.538547 -0.247569 0.564926 -0.138156 0.398542 0.111244 0.537078 -0.169722 0.608752 0.394393 -0.115076 0.525982 0.106302 0.392803 0.932778 0.674603 -0.238921 0.953638 0.696197 0.835123 0.275385 0.888829 -0.141673 0.5111 0.890102 -0.26271 0.272297 0.818275 0.771308 0.951874 -0.156623 0.9502 0.953324 0.29548 -0.371835 0.414888 0.696179 -0.905905 -0.145695 0.412082 0.415415 -0.379225 -0.770708 -0.0211332 0.272302 0.0171093 0.16768 -0.281974 0.276369 -0.619056 -0.116503 -0.530208 -0.101737 0.37548 0.237308 0.126571 0.108392 -0.812249 -0.1177 0.00199094 -0.151021 -0.654648 0.805905 0.132306 -0.474936 -0.000371772 0.218166 -0.680674 0.891343 0.274953 -0.268349 0.390381 -0.547548 0.758997 0.356477 -0.509507 0.37287 -0.00151557 0.0203852 0.00848379 0.251431 0.128465 0.015524 0.13937 0.134914 0.146482 0.016675 0.517667 0.1318 0.16412 0.141579 0.621361
centroid_z 1 178 float
 0 0 0 0 0 0 0 0 0 0 0 0 0 0 0 0 0 0 0 0 0 0 0 0 0 0 0 0 0 0 0 0 0 0 0 0 0 0 0 0 0 0 0 0 0 0 0 0 0 0 0 0 0 0 0 0 0 0 0 0 0 0 0 0 0 0 0 0 0 0 0 0 0 0 0 0 0 0 0 0 0 0 0 0 0 0 0 0 0 0 0 0 0 0 0 0 0 0 0 0 0 0 0 0 0 0 0 0 0 0 0 0 0 0 0 0 0 0 0 0 0 0 0 0 0 0 0 0 0 0 0 0 0 0 0 0 0 0 0 0 0 0 0 0 0 0 0 0 0 0 0 0 0 0 0 0 0 0 0 0 0 0 0 0 0 0 0 0 0 0 0 0 0 0 0 0 0 0
