# vtk DataFile Version 3.0
vtk output
ASCII
DATASET UNSTRUCTURED_GRID
POINTS 17382 double
0.205406 0.233772 0
0.205421 0.23373 0
0.233891 0.217267 0
0.243023 0.223192 0
0.221987 0.241858 0
0.205406 0.233772 0
0.0198727 0.397582 0
0.0275166 0.340099 0
0.0353688 0.339031 0
0.0377568 0.345306 0
0.0238583 0.392627 0
0.0198727 0.397582 0
0.429802 0.242571 0
0.43064 0.219737 0
0.451834 0.212495 0
0.451887 0.21249 0
0.452531 0.212661 0
0.451949 0.21581 0
0.438559 0.242977 0
0.429802 0.242571 0
0.390768 0.416882 0
0.416764 0.39506 0
0.422478 0.400703 0
0.405283 0.420638 0
0.396645 0.426626 0
0.391203 0.427016 0
0.390768 0.416882 0
0.0603476 0.796126 0
0.0608662 0.781366 0
0.0618092 0.778269 0
0.0679555 0.769736 0
0.0765819 0.764749 0
0.0795426 0.783937 0
0.0721281 0.793662 0
0.0603476 0.796126 0
0.112511 0.251666 0
0.123057 0.252591 0
0.138214 0.255793 0
0.144183 0.267153 0
0.144118 0.27338 0
0.133443 0.273975 0
0.1119 0.254076 0
0.112511 0.251666 0
0.0353688 0.339031 0
0.0404249 0.31283 0
0.0453658 0.307973 0
0.0523449 0.323603 0
0.0466529 0.341973 0
0.0417927 0.347647 0
0.0377568 0.345306 0
0.0353688 0.339031 0
0.714085 0.252976 0
0.708651 0.247366 0
0.735511 0.234175 0
0.752911 0.231439 0
0.758521 0.235774 0
0.757715 0.236536 0
0.714085 0.252976 0
0.167512 0.841754 0
0.182058 0.843048 0
0.177613 0.870644 0
0.168806 0.870368 0
0.163603 0.86443 0
0.167512 0.841754 0
0.0036523 0 0
0.0285327 0 0
0.0382893 0.0128435 0
0.0273387 0.0213355 0
0.00545362 0.00355052 0
0.0036523 0 0
0.438559 0.242977 0
0.451949 0.21581 0
0.461792 0.237305 0
0.439822 0.253203 0
0.438559 0.242977 0
0.816884 0.330953 0
0.823031 0.331733 0
0.816711 0.353037 0
0.801837 0.364323 0
0.798634 0.360942 0
0.797988 0.35215 0
0.816884 0.330953 0
0.241531 0.952593 0
0.243085 0.951391 0
0.268487 0.940157 0
0.273587 0.956519 0
0.27267 0.958487 0
0.241854 0.959583 0
0.241531 0.952593 0
0.125221 0.282466 0
0.133443 0.273975 0
0.144118 0.27338 0
0.151592 0.282679 0
0.13771 0.298691 0
0.128166 0.289927 0
0.125221 0.282466 0
0.0765819 0.764749 0
0.0891724 0.735699 0
0.0896482 0.735938 0
0.0916949 0.741793 0
0.0867074 0.782932 0
0.0795426 0.783937 0
0.0765819 0.764749 0
0.641719 0.690337 0
0.642003 0.690132 0
0.666586 0.676241 0
0.676532 0.677958 0
0.6736 0.682952 0
0.650109 0.702527 0
0.645379 0.698974 0
0.641719 0.690337 0
0.715278 0.83555 0
0.717441 0.837461 0
0.716706 0.850325 0
0.700157 0.864351 0
0.698536 0.86451 0
0.694673 0.847732 0
0.704177 0.838755 0
0.715278 0.83555 0
0.0152475 0.419164 0
0.0119095 0.411881 0
0.0198727 0.397582 0
0.0238583 0.392627 0
0.0325716 0.395209 0
0.0365856 0.411461 0
0.0152475 0.419164 0
0 0 0
0.0036523 0 0
0.00545362 0.00355052 0
0.0108519 0.033584 0
0.00779868 0.0474173 0
0.00048587 0.0498394 0
0 0.0496154 0
0 0 0
0.494945 0.297786 0
0.511967 0.291449 0
0.528278 0.294127 0
0.527039 0.297483 0
0.522556 0.300948 0
0.497341 0.309093 0
0.485747 0.308342 0
0.494945 0.297786 0
0.192375 0.86428 0
0.199844 0.841107 0
0.215284 0.840366 0
0.223323 0.846739 0
0.220501 0.851567 0
0.215051 0.85437 0
0.192375 0.86428 0
0.688231 0.244871 0
0.688246 0.245437 0
0.679841 0.259123 0
0.650432 0.254236 0
0.65458 0.244349 0
0.688231 0.244871 0
0.241854 0.959583 0
0.27267 0.958487 0
0.270778 0.969386 0
0.268292 0.970759 0
0.252363 0.975607 0
0.240201 0.966191 0
0.241854 0.959583 0
0.144183 0.267153 0
0.159038 0.264036 0
0.172178 0.264128 0
0.170286 0.276868 0
0.153512 0.28349 0
0.151592 0.282679 0
0.144118 0.27338 0
0.144183 0.267153 0
0.0259761 0.049661 0
0.0377672 0.034422 0
0.0498937 0.0396724 0
0.0593703 0.0468487 0
0.0602099 0.0480264 0
0.0549702 0.0554423 0
0.0259761 0.049661 0
0.717441 0.837461 0
0.746367 0.840761 0
0.746542 0.841256 0
0.746398 0.841568 0
0.734413 0.858613 0
0.716706 0.850325 0
0.717441 0.837461 0
0.470252 0.195485 0
0.48488 0.177359 0
0.493762 0.175538 0
0.488827 0.203297 0
0.468305 0.200666 0
0.470252 0.195485 0
0.823031 0.331733 0
0.83807 0.319718 0
0.841345 0.330428 0
0.822128 0.356794 0
0.821747 0.357022 0
0.816711 0.353037 0
0.823031 0.331733 0
0.0365151 0.432698 0
0.0193307 0.424651 0
0.0155375 0.420192 0
0.0152475 0.419164 0
0.0365856 0.411461 0
0.0424813 0.415334 0
0.0470527 0.428489 0
0.0365151 0.432698 0
0.58509 0.742328 0
0.5974 0.736634 0
0.605312 0.749797 0
0.604463 0.751341 0
0.58121 0.763986 0
0.578612 0.755992 0
0.583372 0.743861 0
0.58509 0.742328 0
0.115613 0.705633 0
0.115945 0.705704 0
0.112873 0.717367 0
0.0982906 0.753088 0
0.0916949 0.741793 0
0.0896482 0.735938 0
0.115613 0.705633 0
0.240201 0.966191 0
0.252363 0.975607 0
0.248465 0.984662 0
0.23646 0.992066 0
0.2247 0.974439 0
0.240201 0.966191 0
0.00779868 0.0474173 0
0.0108519 0.033584 0
0.0334234 0.0312947 0
0.0377672 0.034422 0
0.0259761 0.049661 0
0.0143565 0.0504889 0
0.00779868 0.0474173 0
0.182058 0.843048 0
0.187821 0.841506 0
0.199844 0.841107 0
0.192375 0.86428 0
0.178036 0.870939 0
0.177613 0.870644 0
0.182058 0.843048 0
0.716706 0.850325 0
0.734413 0.858613 0
0.729842 0.871478 0
0.700157 0.864351 0
0.716706 0.850325 0
0.178477 0.28185 0
0.203619 0.258444 0
0.208855 0.258667 0
0.208681 0.26471 0
0.202994 0.283014 0
0.180984 0.283474 0
0.178477 0.28185 0
0.558354 0.260207 0
0.529114 0.293476 0
0.528278 0.294127 0
0.511967 0.291449 0
0.535737 0.272047 0
0.558354 0.260207 0
0.686554 0.271398 0
0.671617 0.272711 0
0.648347 0.256504 0
0.650432 0.254236 0
0.679841 0.259123 0
0.692485 0.270103 0
0.686554 0.271398 0
0.0238583 0.392627 0
0.0377568 0.345306 0
0.0417927 0.347647 0
0.0427624 0.356705 0
0.0410262 0.36411 0
0.0325716 0.395209 0
0.0238583 0.392627 0
0.00545362 0.00355052 0
0.0273387 0.0213355 0
0.0334234 0.0312947 0
0.0108519 0.033584 0
0.00545362 0.00355052 0
0.493762 0.175538 0
0.499783 0.171742 0
0.508025 0.17956 0
0.508808 0.192345 0
0.490422 0.204518 0
0.488827 0.203297 0
0.493762 0.175538 0
0.288026 0.982422 0
0.29165 0.996734 0
0.288648 1 0
0.279387 1 0
0.277346 0.998436 0
0.268292 0.970759 0
0.270778 0.969386 0
0.284996 0.978023 0
0.288026 0.982422 0
0.0867074 0.782932 0
0.0916949 0.741793 0
0.0982906 0.753088 0
0.101735 0.770536 0
0.100338 0.778436 0
0.093206 0.785632 0
0.0867074 0.782932 0
0.732672 0.801976 0
0.750239 0.817437 0
0.748823 0.830227 0
0.746861 0.832773 0
0.72646 0.820692 0
0.732672 0.801976 0
0.62069 0.726209 0
0.647551 0.710395 0
0.647899 0.71513 0
0.643181 0.725065 0
0.636271 0.732206 0
0.613442 0.742452 0
0.62069 0.726209 0
0.799198 0.380989 0
0.805909 0.386466 0
0.798618 0.401789 0
0.78588 0.409207 0
0.780865 0.404737 0
0.778179 0.399717 0
0.780546 0.395717 0
0.799198 0.380989 0
0.0885196 0.00574113 0
0.0676651 0 0
0.153358 0 0
0.110388 0.00855544 0
0.0885196 0.00574113 0
0.145986 0.894754 0
0.178634 0.874168 0
0.181556 0.878471 0
0.182883 0.8881 0
0.170244 0.896271 0
0.165788 0.896729 0
0.145986 0.894754 0
0.172178 0.264128 0
0.17348 0.262487 0
0.19617 0.257816 0
0.203619 0.258444 0
0.178477 0.28185 0
0.170286 0.276868 0
0.172178 0.264128 0
0.0410262 0.36411 0
0.0427624 0.356705 0
0.055857 0.377632 0
0.0549456 0.393339 0
0.0469525 0.406832 0
0.0410262 0.36411 0
0.268927 0.939119 0
0.293607 0.945763 0
0.30863 0.950554 0
0.307535 0.952702 0
0.300252 0.955371 0
0.273587 0.956519 0
0.268487 0.940157 0
0.268927 0.939119 0
0.750239 0.817437 0
0.761223 0.793763 0
0.766855 0.791495 0
0.770201 0.812496 0
0.769672 0.813287 0
0.748823 0.830227 0
0.750239 0.817437 0
0.110388 0.00855544 0
0.153358 0 0
0.166999 0 0
0.165426 0.00154464 0
0.141867 0.0145291 0
0.128352 0.0138653 0
0.110388 0.00855544 0
0.619726 0.27288 0
0.630664 0.267894 0
0.658012 0.277175 0
0.646847 0.283909 0
0.613036 0.279613 0
0.619726 0.27288 0
0.457308 0.209335 0
0.468305 0.200666 0
0.488827 0.203297 0
0.490422 0.204518 0
0.490301 0.212339 0
0.488827 0.21393 0
0.480732 0.220038 0
0.457308 0.209335 0
0.529114 0.293476 0
0.558354 0.260207 0
0.558676 0.259968 0
0.567185 0.266594 0
0.562307 0.27832 0
0.529114 0.293476 0
0.0534675 0.821038 0
0.057046 0.803575 0
0.0603476 0.796126 0
0.0721281 0.793662 0
0.073094 0.800252 0
0.0595566 0.830827 0
0.0583416 0.830972 0
0.0565903 0.829784 0
0.0534675 0.821038 0
0.604463 0.751341 0
0.605312 0.749797 0
0.613442 0.742452 0
0.636271 0.732206 0
0.629697 0.750597 0
0.606569 0.760139 0
0.604463 0.751341 0
0.200413 0.237592 0
0.205406 0.233772 0
0.221987 0.241858 0
0.217785 0.248443 0
0.208855 0.258667 0
0.203619 0.258444 0
0.19617 0.257816 0
0.200413 0.237592 0
0.0325716 0.395209 0
0.0410262 0.36411 0
0.0469525 0.406832 0
0.0424813 0.415334 0
0.0365856 0.411461 0
0.0325716 0.395209 0
0.142372 0.884273 0
0.160443 0.874107 0
0.168806 0.870368 0
0.177613 0.870644 0
0.178036 0.870939 0
0.178634 0.874168 0
0.145986 0.894754 0
0.136882 0.89517 0
0.142372 0.884273 0
0.816711 0.353037 0
0.821747 0.357022 0
0.809602 0.385093 0
0.805909 0.386466 0
0.799198 0.380989 0
0.801837 0.364323 0
0.816711 0.353037 0
0.0859726 0.00966071 0
0.0885196 0.00574113 0
0.110388 0.00855544 0
0.128352 0.0138653 0
0.107345 0.0220793 0
0.099285 0.0230666 0
0.0859726 0.00966071 0
0.785592 0.80106 0
0.798751 0.784161 0
0.812692 0.799176 0
0.810082 0.803302 0
0.805579 0.806534 0
0.796754 0.809649 0
0.785444 0.80633 0
0.785592 0.80106 0
0.32079 0.939004 0
0.323335 0.936635 0
0.345524 0.939442 0
0.346071 0.939896 0
0.348929 0.942587 0
0.332556 0.954672 0
0.326469 0.956605 0
0.314723 0.946086 0
0.32079 0.939004 0
0.0595566 0.830827 0
0.073094 0.800252 0
0.0857822 0.814996 0
0.0857063 0.816683 0
0.0688992 0.832071 0
0.0682633 0.832492 0
0.0595566 0.830827 0
0.0492704 0 0
0.0676651 0 0
0.0885196 0.00574113 0
0.0859726 0.00966071 0
0.0635105 0.0180779 0
0.0492704 0 0
0.648347 0.256504 0
0.671617 0.272711 0
0.658012 0.277175 0
0.630664 0.267894 0
0.648347 0.256504 0
0.451949 0.21581 0
0.452531 0.212661 0
0.457308 0.209335 0
0.480732 0.220038 0
0.461852 0.237294 0
0.461792 0.237305 0
0.451949 0.21581 0
0.153512 0.28349 0
0.170286 0.276868 0
0.178477 0.28185 0
0.180984 0.283474 0
0.170185 0.300173 0
0.16138 0.300897 0
0.153512 0.28349 0
0 0.40195 0
0.010514 0.410369 0
0.0119095 0.411881 0
0.0152475 0.419164 0
0.0155375 0.420192 0
0.0137792 0.434832 0
[...]
CELL_DATA 2500
FIELD FieldData 3
weight 1 2500 float
 9.72977 11.6126 6.69669 1.40723 1.58416 9.97527 11.2457 2.12649 -0.248603 17.1236 6.28492 1.44823 1.57318 9.6575 1.43175 2.76527 4.81862 10.8491 17.3683 2.33793 -0.200056 2.04478 1.64922 9.73848 15.5455 4.90584 6.77847 1.66627 10.3763 2.58399 1.24264 1.77208 15.9132 -0.20246 4.92058 9.51714 2.5788 1.89918 11.0098 16.6186 6.63678 1.9536 1.33544 4.82589 2.92453 1.27658 19.5765 -0.0578161 9.5277 10.5628 1.60209 4.9099 18.6237 1.72044 6.34242 2.37447 1.43177 3.21384 9.68251 10.5887 -0.119888 1.4956 17.1911 5.13501 1.92364 1.32025 17.5257 1.80617 6.29838 9.34895 12.004 3.37296 5.19294 -0.0837062 2.08659 2.02238 18.9762 1.29031 0.950915 12.2248 5.02791 1.9977 9.78498 6.11948 18.4942 -0.0722472 3.27816 2.05179 1.05805 11.6808 2.02542 1.8978 5.11811 17.3897 9.78165 0.809212 -0.0203321 5.92313 3.39345 1.80091 1.10795 5.31453 2.00584 17.6012 10.184 9.65198 2.04719 1.91731 16.5818 5.27513 10.4566 -0.261506 3.40686 1.10877 5.75836 2.45886 9.46019 17.2028 1.96805 4.78407 9.50463 -0.241375 3.23853 16.4318 2.17688 5.60899 0.818134 9.61763 4.99026 2.43119 10.0064 2.22974 16.933 3.52592 5.18898 -0.198795 0.877055 9.43305 1.82318 10.4056 5.4829 16.5096 2.23499 1.07484 1.63252 5.34907 1.94991 3.60142 9.30637 17.3063 -0.0924326 0.648887 9.16366 5.43422 5.21438 2.07542 16.1518 0.931737 2.35119 9.33404 1.53128 3.59411 -0.163455 9.67007 5.59273 0.866138 2.32222 17.1041 5.73585 9.39389 2.63042 16.0459 5.48626 10.5613 1.14523 3.61709 0.957789 -0.19293 1.45125 2.19105 15.9979 5.40804 9.33432 2.15896 5.6564 11.0752 16.6635 3.6507 0.604809 -0.0862214 1.49011 5.60226 1.46316 2.08918 9.35406 15.781 10.4624 2.21372 5.76035 3.65145 0.83185 5.78187 16.3695 -0.104502 2.22425 10.5135 9.19809 1.30479 2.67844 5.88123 1.52729 15.0994 3.63098 2.2976 5.22416 2.01838 0.086799 9.11724 10.031 5.58933 1.91233 14.8071 2.03921 2.35049 1.45477 3.61139 5.60531 0.175818 16.0738 5.06926 9.20454 9.92381 1.82457 1.62507 5.67154 2.25688 2.37915 16.0407 0.281114 3.73687 9.6493 9.19635 1.73149 5.7274 5.75735 15.6426 2.64043 1.8617 3.81576 1.71101 0.28639 1.95511 9.92779 9.17253 5.6215 15.6865 2.62687 5.6803 3.44883 1.45508 5.88338 0.170794 15.1342 9.97199 1.86674 8.92425 2.6333 1.47639 1.81989 5.81912 15.3679 5.44991 3.34253 9.78322 0.425486 1.91919 9.03198 2.90242 15.129 5.85569 0.29955 9.77588 2.96721 20.5966 5.59458 1.46493 5.91073 15.1713 2.70662 1.71203 20.9932 0.362388 9.36613 6.0791 3.06588 13.7754 2.53306 5.7685 19.528 6.175 9.41031 1.62269 1.97101 0.0671389 14.3983 2.98453 3.16122 18.7164 5.39072 14.4076 3.13742 0.149868 2.82874 18.9221 1.58705 14.0405 3.22803 5.22925 6.09158 0.129646 17.8715 2.39609 13.5862 1.49353 3.30048 6.00913 17.7525 1.71005 14.8112 0.272721 5.94083 2.07563 1.32467 9.03081 3.83038 15.4963 17.3469 6.09136 0.549983 14.6456 1.21097 6.08216 8.82869 3.50617 1.60198 1.61737 16.839 13.7939 0.487267 6.16819 2.99347 5.49825 16.7111 8.87229 14.7555 0.736405 0.899843 1.61233 5.89564 1.42191 13.699 15.0118 2.91847 0.787504 1.29045 5.38349 5.67628 13.2912 15.4947 0.826119 3.01957 0.930719 5.72353 13.9898 2.67441 3.14374 1.33339 0.80075 15.0264 1.2502 13.2672 5.0298 5.91379 2.8369 0.52498 3.14021 0.442486 14.6855 13.1123 2.19666 5.5623 3.09308 1.50264 0.637811 0.802259 5.35081 13.3628 14.5687 2.08829 2.16249 5.63671 1.27842 0.993197 13.7613 3.04451 0.678496 14.2834 5.28258 1.4992 6.00401 14.8582 1.90071 0.952995 3.20054 14.6413 2.06953 0.465483 6.14729 14.143 1.24835 1.09715 4.77337 3.4344 15.3631 1.43705 2.19274 14.1684 6.26973 2.32847 0.444422 1.0263 14.4821 5.02252 3.77258 6.50309 14.0822 1.20623 1.0185 1.38497 2.25687 2.55782 1.43402 13.9303 1.67863 3.65058 6.42694 15.8579 1.15325 13.7866 2.44948 4.50051 1.69831 4.06118 6.49049 15.9624 0.745755 1.40645 13.3562 0.971367 0.649785 1.49775 2.24015 4.56744 4.36542 6.5448 15.5779 13.3469 0.714165 1.30725 0.850971 7.03363 1.06138 4.31705 12.9561 2.42747 16.3264 1.76782 4.82294 1.08962 0.586745 6.92506 13.1382 4.2068 14.4702 2.59278 0.87491 0.656481 0.531844 6.99738 13.269 1.16061 4.38785 4.00586 0.601715 12.6308 0.883274 6.90483 12.5535 2.6348 0.625218 1.11512 4.54251 12.6927 0.673989 7.13559 12.6102 3.99083 1.3239 0.699753 2.50946 0.600796 4.80094 1.22761 13.4141 12.6686 1.2677 4.44683 0.351641 4.01624 3.01741 12.8009 7.91134 1.19051 0.601405 11.969 0.977611 6.21422 12.2166 0.999864 0.300187 2.14417 9.6004 0.896851 4.62605 6.12702 12.3125 12.4699 0.603428 0.832122 2.72655 9.39228 6.24184 0.672907 1.08611 0.993317 12.1489 11.9489 4.45092 1.0958 6.28987 12.3784 0.575461 2.36793 9.25298 11.2342 0.836858 6.36633 1.13155 1.26222 11.7732 4.27476 0.999373 2.62348 9.10058 11.0644 6.48074 1.28704 0.674763 0.576068 11.7658 0.658416 2.49875 4.31625 6.69998 9.06674 10.8366 1.16505 12.7714 0.74155 0.95607 6.98551 2.52453 0.590304 1.30525 12.0639 10.7523 8.90682 0.740481 6.98264 4.11226 0.729913 1.50931 6.47904 12.0342 2.49101 0.974163 10.3012 8.821 0.605958 6.58553 1.3533 0.82524 11.7334 4.0525 0.67044 2.41762 10.3215 8.76421 1.72255 6.50652 11.9704 0.827166 3.68225 0.661124 2.05097 2.97579 10.5283 0.907705 6.59921 8.59326 0.718669 11.3935 1.56564 6.62565 10.3369 13.7947 0.786883 2.70819 8.51518 1.24294 4.19063 6.88164 1.46515 3.82713 13.975 10.1061 2.85613 8.52086 7.0146 1.68015 4.20594 0.62298 13.8032 1.22632 10.3043 1.91705 6.94508 2.86561 13.3097 3.8758 8.39713 3.80099 6.98774 1.8717 0.633703 0.646892 10.5601 13.2962 1.29606 2.96495 3.84325 8.16244 7.82494 3.86477 12.7894 10.4222 2.94533 4.28205 7.4822 1.72579 9.13031 0.842911 12.9936 0.532723 0.43069 7.2674 4.24586 9.67966 3.52385 3.12194 13.3148 8.76302 7.66775 1.76584 4.55262 0.78122 10.2271 13.0557 0.556851 3.21548 7.47492 8.87361 0.445955 3.36249 12.7606 1.71304 7.63946 9.37947 2.70078 2.87683 12.3959 0.502346 8.67263 5.50726 0.663279 9.46708 3.0087 1.79896 2.9293 3.4553 13.0865 0.457377 5.25694 9.4375 8.6183 3.01941 12.7656 2.29338 2.77865 0.507599 5.22019 0.816559 3.32406 9.56755 12.7619 8.52502 3.12034 5.57838 2.74952 0.711619 0.41859 2.16359 9.57952 12.6842 0.487494 5.75072 3.25758 0.565756 3.35293 8.46756 3.48693 12.862 2.18011 5.8258 9.53233 0.344368 12.4018 3.35167 2.96714 0.400927 6.45261 5.48059 8.57002 0.483945 9.99699 0.470869 2.05629 0.378375 12.0495 5.9376 3.42709 3.06563 6.38438 8.39857 9.89074 13.6434 2.31237 5.98293 0.514469 0.438545 3.25449 0.454072 0.414022 3.04948 13.3753 5.93491 9.73667 8.22299 6.4094 2.46924 3.71749 12.8639 6.47899 3.20253 9.9235 0.419633 0.490229 8.0913 0.615467 6.23819 6.51968 12.8653 3.7109 2.55596 3.1684 0.335549 9.61769 6.47092 13.3024 6.38521 0.342839 2.71418 8.1331 2.52206 0.610919 3.00715 6.63045 9.62873 1.15792 13.1513 2.70284 5.8981 6.23252 7.91984 0.348901 1.89925 0.358672 3.6165 12.7824 9.3256 0.616698 6.41733 8.27655 3.14188 6.3008 12.5897 3.6305 1.21927 0.292069 1.80378 9.57082 6.44165 8.39108 6.15823 12.6059 3.00222 0.368077 6.70045 0.522337 3.52909 9.61534 0.2189 1.58643 12.3754 6.50261 1.01557 8.08751 6.01004 3.08172 3.69345 9.56591 12.3814 6.54752 0.571892 0.279519 1.64548 7.29464 0.34134 3.53768 3.58617 12.1155 9.45901 5.42226 6.50356 0.976264 11.8335 6.98267 3.50039 7.32027 0.270457 0.957258 3.42971 1.70417 9.24278 5.49539 6.91466 12.1166 0.370986 3.3785 7.11211 3.45975 9.46123 6.76102 0.250894 1.63328 0.880225 5.71887 0.944019 12.227 3.48452 7.6692 9.35447 3.59709 11.5673 2.11554 5.1345 0.232918 0.926338 3.85359 0.304304 11.4974 0.844375 7.55003 9.2859 7.15688 5.05525 11.2546 6.95807 0.233709 9.31482 0.840915 7.35542 3.87203 7.15182 11.8458 0.867119 4.53292 0.30017 0.39903 9.0543 6.75573 7.52607 12.0157 0.802828 9.04184 0.344195 6.19912 11.839 7.61213 3.83711 6.96111 1.21856 2.31216 0.302135 11.2536 8.92728 7.06035 0.34894 5.96612 0.825603 7.73397 3.70453 7.1819 2.57124 10.8984 8.8485 1.2675 5.73734 0.379874 7.15851 7.22662 3.79435 3.89441 0.903708 10.7907 0.308426 2.35731 7.18439 9.13548 5.8438 7.29786 3.95503 0.225261 4.15553 7.31439 10.872 1.07622 2.52795 1.06935 9.14382 7.42032 6.88779 3.81375 5.64919 3.90309 11.2359 0.429669 0.236033 7.45973 8.88795 3.83194 -0.312155 6.67515 3.69663 12.5449 5.41893 1.01483 6.56541 1.23611 0.195373 12.3204 4.41249 6.77905 3.88762 8.97326 6.63052 5.16344 0.345194 7.07239 11.915 5.0007 -0.23722 0.354752 3.84589 1.19103 6.65706 8.70064 6.73812 5.38587 12.0169 3.87786 7.23023 0.308876 3.8974 11.5013 6.88198 -0.244296 0.371764 8.6123 3.92567 4.98303 7.34336 1.13372 11.2674 4.13529 0.325959 1.1533 7.08762 8.54168 3.85322 6.77989 -0.262686 11.8333 4.70416 7.24693 4.19765 0.385322 3.94783 0.187757 11.6457 6.68517 8.67544 1.0486 7.74582 0.911181 3.58817 4.73423 11.6867 4.3728 7.58534 -0.111508 0.156449 6.66156 8.59045 11.6416 3.48395 0.993642 1.12521 4.29618 0.253116 2.76962 0.162722 7.63693 6.60314 11.5511 8.53602 3.46784 -0.0212805 7.61619 4.41749 2.8902 0.99119 0.0590137 11.6474 7.99532 1.10076 6.51055 3.56265 8.62424 7.64509 11.3569 0.277678 4.77607 -0.0835663 2.90017 3.62013 0.0460296 1.05434 7.67507 6.25856 8.59942 11.4889 7.82419 3.38155 4.93691 0.999746 3.67874 11.5275 0.0189348 6.64119 7.97059 0.756067 -0.0908222 8.48074 0.22909 3.36532 3.68488 11.4588 4.95707 0.0724166 6.4549 1.00695 8.41026 11.1169 8.59181 3.28341 0.738574 4.27296 -0.0818889 4.99542 8.6615 6.30393 11.1999 0.11815 8.76267 4.18176 3.25836 0.230925 8.47706 4.34573 0.933537 0.747854 -0.148019 9.23093 10.9688 4.11272 6.09669 8.21964 0.11737 3.26596 9.49964 4.54328 11.1484 4.23079 0.780295 0.249427 3.82939 8.31447 6.04202 7.62892 0.838649 0.00113608 0.146113 10.6628 4.16508 3.85804 7.27071 3.3759 6.22789 8.32532 10.6135 0.713399 4.32039 0.0832676 7.35211 -0.255257 0.880351 0.242249 6.29912 10.5931 3.99171 3.02002 7.67921 4.27252 7.78614 0.113476 10.5484 -0.155819 0.659957 6.19493 7.85751 3.17127 4.45239 0.883648 9.32543 3.97681 10.6597 8.36233 0.203455 5.78528 4.52836 3.44232 -0.188879 -0.0521718 8.8808 0.690869 8.34756 10.7711 3.95189 5.89021 4.62899 0.640203 8.76181 3.32572 9.0169 -0.0628781 10.6863 -0.0432239 0.863027 8.04905 4.78739 5.98321 0.181939 4.22734 3.43319 10.7101 8.03364 4.71792 0.710892 0.0733745 -0.0810873 6.15711 0.766251 8.19195 4.05899 3.12468 10.0048 4.57395 8.44653 0.183775 5.75841 9.90683 -0.0126778 8.38795 0.794199 3.13535 4.14574 2.88138 1.33722 0.0481442 8.62392 9.73327 5.61132 3.5977 -0.0723702 3.14537 9.29279 1.57543 3.66255 0.131222 9.07014 0.179737 9.70545 0.789336 5.52974 3.27881 3.63239 9.1754 11.3103 9.13031 1.64691 0.427674 9.32468 3.70194 5.64237 3.98129 3.08873 0.141771 11.1914 9.14863 0.450247 8.97418 0.198635 1.67545 3.48982 3.73882 5.60661 11.1794 9.31222 0.334343 3.59289 0.0943699 8.76726 3.81501 10.7114 11.2195 4.27705 1.19424 5.29888 0.425121 9.93959 0.354946 3.63303 8.64514 0.193998 11.1344 3.54973 0.0918316 4.3673 9.64077 4.77711 1.21236 3.31771 10.9073 8.61285 4.44596 9.66545 0.455719 3.48255 0.33106 0.476894 3.71338 4.82702 10.9285 1.28476 8.96361 10.6362 0.147322 3.33557 4.00632 10.926 11.79 3.16992 4.98755 8.57195 0.285617 0.511775 0.330943 1.21986 3.5207 10.1118 10.925 3.75673 5.24616 10.2146 0.288323 8.20889 2.82368 10.9581 4.26776 1.53272 3.3469 0.230733 0.104886 5.49924 8.83806 0.750156 10.7144 7.93409 9.17337 4.56098 2.94226 3.5309 1.5439 5.44714 10.22 0.250455 10.6511 4.36255 0.0829474 0.234733 10.2388 8.07123 2.32911 3.89608 0.753787 5.11176 3.04821 10.384 10.6465 4.52534 0.261957 9.48854 8.20557 0.173875 5.28743 10.7671 4.00454 4.40538 2.09467 9.2659 3.09346 0.263447 9.51073 4.48881 10.7053 0.721763 4.98578 8.04536 0.212932 4.2382 2.40803 0.155677 6.94901 10.6009 5.01032 5.43777 2.8536 3.99936 7.86213 6.89046 0.413995 1.74647 0.524018 10.7576 0.617832 5.05085 4.54216 0.167761 6.90839 4.00779 7.29832 3.87683 10.8057 5.22049 1.79033 7.36822 0.356128 4.29843 4.4976 7.95332 10.539 0.458743 0.0978029 5.50803 0.615431 7.29458 4.15902 1.58143 4.68016 4.28838 10.6234 0.655216 6.00995 7.61681 7.80702 0.141843 3.78329 7.64948 6.194 10.3848 4.57849 4.50768 0.492235 0.747921 0.725311 7.37791 7.52587 6.21821 10.4066 4.79992 3.76843 0.0122878 8.0433 3.75002 6.12886 7.36968 -0.00119292 10.3748 0.582565 0.746918 4.41541 3.75089 7.53919 6.37891 3.84851 10.3075 0.00327728 6.89546 8.04739 0.00163417 4.37613 3.71267 6.53482 11.091 0.602332 8.18182 9.68609 0.753795 4.2965 6.46634 3.71589 3.502 -0.0506972 8.50076 10.7801 0.0919806 9.39282 9.00313 6.52021 4.00091 4.43033 10.4672 0.489803 0.0698733 3.9031 9.94042 0.729019 9.08419 0.0911012 6.77331 4.01882 10.3533 9.11056 9.52346 3.79045 8.26279 9.5359 10.3525 0.704729 3.88556 4.16024 0.0338472 0.32173 7.44402 9.187 9.02528 3.70487 9.7531 10.3247 1.91653 4.03407 7.30468 9.3693 0.0382528 9.18015 0.61079 10.4415 0.374616 6.74649 9.02189 4.00688 3.21794 1.69872 9.0684 7.41088 10.2343 0.0255342 6.90609 9.16927 0.609215 1.89579 3.30457 0.470354 10.1361 7.24838 9.48356 9.02286 10.2316 0.383156 9.43232 7.18775 2.93747 1.95007 8.80262 10.09 0.629291 0.448112 0.153305 10.3176 8.65383 9.8135 1.9578 8.55564 0.335226 9.92407 9.44984 2.63504 8.36569 0.66785 0.105199 8.21225 9.42505 10.4109 0.112939 8.16713 1.05667 0.394189 8.72929 8.69576 10.5334 3.03359 0.147569 8.1487 0.652612 8.87618 1.29832 10.5281 8.49293 8.21146 0.12277 9.36198 0.274088 3.92995 3.27221 0.247557 10.3697 8.39699 9.26539 8.09515 1.24218 4.26819 0.674116 10.3156 9.96689 9.51446 0.249369 3.06611 0.360469 8.101 4.35615 0.142913 11.1639 10.0036 1.4052 10.1286 9.06335 10.2968 9.70225 0.227598 0.571378 4.24095 0.309219 10.2735 10.1737 2.93262 9.17636 1.3445 4.04486 4.77002 10.1886 0.0803031 8.86413 0.363302 4.00088 1.41143 0.436192 0.441914 4.13112 10.1671 2.65572 9.06679 4.66711 0.336512 9.12933 4.02107 9.9789 4.13529 1.23122 5.04709 0.10253 0.425282 2.719 0.497912 8.58862 10.0381 0.344972 4.27979 3.7521 4.63861 1.17837 8.7258 9.92766 2.82611 4.1198 0.439711 0.227423 4.85512 0.0600255 0.464329 8.74835 9.95506 1.19585 4.14511 4.07856 4.9841 8.91304 0.331786 2.6656 9.72091 0.37881 4.38643 0.568746 5.07695 4.29821 0.86741 8.45295 0.0764934 0.523156 9.83805 4.00255 4.47255 4.70669 8.49652 4.10631 0.395671 9.85913 0.981315 0.458134 4.76548 4.24044 5.63864 8.62452 0.591725 3.82906 0.370436 0.180815 5.76146 0.618047 4.57446 0.977041 8.30217 3.71347 3.59756 0.370123 4.68836 0.581037 5.1138 8.40422 0.749863 3.78509 3.62557 0.377259 0.8587 4.75297 5.13359 8.33883 0.149062 3.77111 0.308623 4.87905 3.39096 0.662353 0.601439 5.06065 7.99137 1.12678 4.4042 4.39307 0.311336 5.13025 3.56421 8.31391 4.39315 0.6647 0.118372 4.31008 1.09745 0.532211 7.89621 5.96193 0.340219 4.75273 3.55374 4.29897 0.63843 6.36154 7.87895 0.314106 4.23486 1.37459 4.32594 3.61625 0.553984 6.08239 8.10676 0.173506 0.281808 4.14618 0.739727 4.6201 1.58975 5.92386 0.259006 8.17743 3.89703 3.652 4.47994 0.893366 6.90781 0.542808 1.71673 3.81874 -0.0461092 7.98395 0.281227 3.22364 4.49517 4.38285 6.16988 0.668466 8.01411 1.36706 0.258673 4.52283 3.0195 0.483454 3.80948 6.95087 0.874991 0.00808325 4.53265 7.58111 0.273889 1.3337 6.98961 3.81924 3.27837 4.58806 0.185792 7.47736 0.835668 0.485975 6.67916 3.49083 1.38253 -0.10144 4.57133 3.0348 7.89029 3.20839 0.854895 0.128708 1.74194 0.439911 4.87344 6.62379 7.39728 3.78083 3.09049 1.09185 4.90122 8.36548 -0.0795705 0.200715 1.60189 7.23567 3.60615 0.500547 7.05119 4.86101 2.94321 1.11212 2.47328 7.42536 4.82979 3.75687 7.34589 0.203265 0.0371589 2.66104 1.15143 2.73111 4.78039 7.16064 3.70126 0.485664 7.19901 2.68022 5.07451 10.2659 7.51825 0.15491 1.20048 2.55547 3.39006 6.89562 8.82589 4.84732 2.48674 7.21848 0.044984 3.40362 2.48296 1.19154 8.73877 6.82081 0.156608 4.86588 6.70588 2.65216 9.0281 3.26838 2.32022 1.18745 6.82432 4.81318 0.00752698 7.5994 3.27684 9.27283 0.050674 3.25648 6.96446 7.83316 4.92514 1.14333 3.25809 9.04722 3.2465 0.184228 7.69284 5.12788 2.84529 6.97758 8.71003 0.0936667 3.52454 1.52213 3.50157 9.05182 5.11603 7.88275 3.08796 6.35699 0.0782768 2.42876 9.99625 5.22571 1.36895 7.71084 0.267575 2.69143 3.03177 7.22598 0.236552 2.35373 8.52767 5.22801 8.17707 2.7245 9.09129 0.795882 7.27129 2.74048 0.23264 5.15756 2.72315 8.27594 0.253563 9.99943 3.11012 5.15429 7.65026 0.218756 2.33757 7.2173 0.809362 2.8391 5.36805 0.715228 7.37033 0.221386 3.16912 7.32119 2.50208 5.35494 1.02704 0.287371 0.745387 7.37151 0.24852 3.01647 2.8832 6.92282 2.7568 5.40635 0.698709 7.93629 0.20195 7.00081 2.81567 3.28985 1.17148 5.55796 2.77352 7.5843 0.21084 2.82237 3.39802 1.00164 0.111609 6.40511 5.47546 7.39065 1.31545 5.49685 3.01108 0.178335 2.63576 2.45053 0.932542 6.86789 7.24611 4.66331 3.34381 0.0583404 0.953244 0.180933 1.29108 7.37252 2.58304 6.35052 4.68472 2.36256 3.06814 9.67131 0.193218 1.2168 2.42304 6.55946 1.21567 4.83825 3.94049 8.90463 2.50464 1.25378 0.160072 -0.0531288 4.75469 6.51978 8.13885 3.92198 8.69356 1.34655 -0.00493209 1.32047 9.06935 15.1555 4.02499 2.54496 8.47052 8.19885 1.15634 13.1422 -0.0691872 7.95813 4.31444 0.108055 0.953527 2.29651 12.4204 8.1488 1.38997 8.18759 3.6575 -0.031301 0.726708 11.887 7.71187 2.0384 8.12143 1.42552 1.07777 3.72605 12.2794 -0.0859236 0.733077 7.78756 8.13058 4.96967 12.137 1.38881 2.17704 7.03451 -0.0666759 0.895485 4.53954 1.42896 0.477079 7.46251 -0.130958 8.0544 4.66055 1.14809 2.03168 1.6282 7.06545 -0.179132 7.7117 0.562406 2.19419 1.65774 8.01653 1.88596 1.14825 -0.1828 8.10726 7.43765 2.32982 1.40123 2.99624 7.36161 0.499422 1.40867 -0.195721 7.49409 2.46879 7.36873 1.36051 2.86184 1.22948 0.602742 2.73103 7.82772 1.27658 6.37466 -0.16123 2.75208 1.31303 0.598246 1.52431 2.05262 5.87162 7.19637 -0.225142 2.18356 1.45771 0.78384 1.77525 2.21941 5.14044 7.5912 -0.248432 0.856291 1.39277 1.9567 2.29722 2.1747 5.72642 1.87666 7.46596 0.920462 1.54093 -0.247497 5.63143 2.08892 2.11755 2.39298 7.86575 5.31519 1.62179 2.59679 0.599838 2.24567 2.04955 -0.230899 6.29384 2.41196 7.77024 1.7708 2.51061 6.4895 0.882872 2.67006 -0.211814 1.69216 7.47686 1.71239 6.43337 2.42007 -0.393499 2.70333 1.6179 1.88038 5.95548 0.351669 2.7892 7.31512 1.83598 -0.392177 1.66798 4.77048 3.10516 1.94037 7.19259 1.70505 0.361736 -0.39131 1.73125 2.23385 4.94855 3.07059 -0.38814 2.02499 7.01414 0.298855 1.82841 2.30808 4.31156 3.07005 -0.394905 1.86686 7.09418 2.62462 0.255332 1.77704 4.60019 2.05498 2.58456 1.95953 0.589829 1.80727 -0.341604 4.46544 6.65767 2.13492 2.66646 4.214 1.6869 2.05684 -0.337735 0.492065 7.21482 2.4912 2.57953 -0.287108 4.46929 1.84915 1.64983 0.74445 2.62339 7.2945 2.75652 4.47035 -0.302439 0.534198 2.0332 1.34462 2.88413 7.32866 2.84482 4.04787 0.645556 2.46832 2.75621 -0.293007 1.27247 7.19709 3.0827 3.87655 1.10849 1.49204 -0.384559 -0.139865 2.0297 3.0995 3.79217 1.4798 7.10289 -0.372959 3.85268 1.25622 4.09062 -0.399446 4.04416 6.93314 1.95697 6.0926 -0.134667 1.15738 4.44284 -0.394724 6.28208 4.44664 7.04797 1.54736 4.68176 5.35388 1.90306 -0.423807 3.28397 -0.136244 5.28328 1.66831 6.92228 -0.385579 4.02438 5.47079 1.4346 1.73088 4.00457 -0.401809 5.70993 6.78871 3.3198 1.97877 5.91156 -0.107926 -0.384674 3.45126 6.00032 1.68335 1.43473 3.92939 6.7618 -0.350897 5.25149 1.37792 3.90172 5.06984 -0.364879 1.62268 -0.0478878 3.61978 1.77068 6.43638 4.86077 3.71465 -0.39694 4.764 2.09343 4.01221 6.30426 1.38554 4.78476 -0.249377 4.31546 2.01902 -0.374942 5.24296 4.24935 2.13006 6.15173 -0.358317 5.2009 4.74059 1.55858 2.26681 -0.23607 3.58253 4.6942 -0.364652 6.24657 3.34014 2.05591 1.22115 3.56245 3.48192 -0.322528 6.41764 2.95446 -0.230664 2.35171 -0.351728 3.60114 1.5771 2.85781 6.53468 2.1104 -0.305434 3.65201 2.4644 -0.165777 1.37453 3.63198 -0.277734 5.77422 2.00673 2.27566 1.19885 2.96434 -0.315853 2.30356 -0.159836 2.33316 7.31348 -0.21714 2.10479 2.40326 2.79837 1.09643 1.93852 7.35637 -0.162663 3.07497 -0.157498 2.66481 -0.231137 2.88729 2.76042 1.00021 7.25008 2.79029 2.60001 -0.260195 2.88031 2.5095 2.65054 -0.228286 -0.0376153 6.42197 3.62849 1.21524 2.58756 0.206731 2.52066 3.31817 0.334748 2.49746 6.69512 2.89278 0.772046 0.118388 3.35544 -0.00777438 2.53258 -0.0204795 2.89314 3.14426 6.80615 0.324646 2.64606 2.46718 3.00997 3.58596 0.11824 0.0930432 3.18646 2.11099 2.63121 3.14537 3.23144 3.23572 2.01436 2.49379 3.22287 3.39066 2.1286 0.137895 2.10307 3.26876 3.00035 1.96415 2.51388 3.41782 2.66622 1.98667 2.0123