# vtk DataFile Version 3.0
vtk output
ASCII
DATASET UNSTRUCTURED_GRID
POINTS 962 double
0.162054 -0.997507 0
0.163301 -1 0
0.310877 -1 0
0.298665 -0.95661 0
0.201115 -0.975664 0
0.162054 -0.997507 0
0.794293 -0.783532 0
0.779534 -0.785217 0
0.76877 -0.786445 0
0.763488 -0.787047 0
0.731455 -0.790703 0
0.736457 -0.861771 0
0.751159 -0.855189 0
0.752414 -0.854626 0
0.752465 -0.854604 0
0.777545 -0.843375 0
0.802198 -0.832337 0
0.817762 -0.780855 0
0.794293 -0.783532 0
-1 -1 0
-0.96823 -1 0
-1 -0.963236 0
-1 -1 0
-0.537611 -1 0
-0.508186 -1 0
-0.462156 -0.907067 0
-0.510246 -0.843937 0
-0.516966 -0.847086 0
-0.565175 -0.890156 0
-0.568619 -0.893232 0
-0.573784 -0.897847 0
-0.537611 -1 0
0.912253 -0.996168 0
0.912594 -0.997871 0
0.912826 -0.999032 0
0.91289 -0.999355 0
0.912947 -0.999642 0
0.912951 -0.999661 0
0.913019 -1 0
1 -1 0
1 -0.97207 0
0.987287 -0.968604 0
0.912253 -0.996168 0
0.591594 -0.712567 0
0.517643 -0.806613 0
0.519416 -0.830036 0
0.533149 -0.847798 0
0.553905 -0.874642 0
0.575104 -0.883252 0
0.638228 -0.886529 0
0.697737 -0.774587 0
0.659156 -0.671805 0
0.591594 -0.712567 0
0.956381 -0.362256 0
0.959871 -0.362443 0
0.968791 -0.36292 0
0.970353 -0.363004 0
0.973204 -0.363156 0
0.980152 -0.363528 0
0.984591 -0.363766 0
0.985496 -0.363814 0
0.9871 -0.3639 0
1 -0.352633 0
1 -0.244326 0
0.956381 -0.362256 0
-0.235016 0.406423 0
-0.0544189 0.436741 0
0.0146033 0.465691 0
0.0405715 0.491278 0
-0.036754 0.569965 0
-0.195792 0.522821 0
-0.235016 0.406423 0
-0.687473 -1 0
-0.573746 -1 0
-0.67048 -0.962417 0
-0.67312 -0.962643 0
-0.673124 -0.962644 0
-0.676462 -0.96293 0
-0.678771 -0.963128 0
-0.679062 -0.963153 0
-0.687911 -0.963912 0
-0.687828 -0.970783 0
-0.68749 -0.998553 0
-0.687473 -1 0
-0.82765 0.993931 0
-0.797773 1 0
-0.828292 1 0
-0.82765 0.993931 0
0.682323 -0.957251 0
0.766079 -0.992042 0
0.769821 -0.993596 0
0.770407 -0.99384 0
0.785237 -1 0
0.83103 -1 0
0.856887 -0.986586 0
0.8494 -0.976481 0
0.72224 -0.881488 0
0.713338 -0.882911 0
0.712162 -0.883099 0
0.702789 -0.884597 0
0.696284 -0.885637 0
0.692992 -0.886163 0
0.669994 -0.889839 0
0.651198 -0.892843 0
0.682323 -0.957251 0
-0.0179545 -0.917266 0
0.00905352 -0.95881 0
0.0214831 -0.977929 0
0.0215503 -0.977947 0
0.0324198 -0.980911 0
0.0366441 -0.982063 0
0.0373356 -0.982252 0
0.0387722 -0.982644 0
0.0388907 -0.982676 0
0.0392124 -0.982764 0
0.112741 -0.827698 0
0.0862938 -0.776101 0
-0.0278237 -0.820611 0
-0.0179545 -0.917266 0
0.802198 -0.832337 0
0.814543 -0.870034 0
0.815641 -0.873387 0
0.817033 -0.87764 0
0.8494 -0.976481 0
0.856887 -0.986586 0
0.862272 -0.987023 0
0.863846 -0.92186 0
0.864575 -0.89167 0
0.864639 -0.889027 0
0.866049 -0.830606 0
0.866219 -0.823578 0
0.868497 -0.72926 0
0.843848 -0.754327 0
0.82149 -0.777063 0
0.817762 -0.780855 0
0.802198 -0.832337 0
0.0134905 0.430898 0
0.0199702 0.342831 0
0.0281657 0.293808 0
0.0883248 0.272833 0
0.0939202 0.270882 0
0.138683 0.255275 0
0.162982 0.255476 0
0.111675 0.501148 0
0.0405715 0.491278 0
0.0146033 0.465691 0
0.0132315 0.434418 0
0.0134905 0.430898 0
-0.195792 0.522821 0
-0.036754 0.569965 0
-0.0423565 0.57962 0
-0.0470252 0.587667 0
-0.0531987 0.598307 0
-0.118977 0.711676 0
-0.124551 0.717468 0
-0.200813 0.634169 0
-0.199761 0.610843 0
-0.199489 0.604821 0
-0.195792 0.522821 0
-0.508186 -1 0
-0.398394 -1 0
-0.417427 -0.916157 0
-0.462156 -0.907067 0
-0.508186 -1 0
0.601606 -1 0
0.649926 -1 0
0.649929 -0.999999 0
0.649931 -0.999998 0
0.649965 -0.999986 0
0.64998 -0.999981 0
0.650246 -0.999886 0
0.652429 -0.999109 0
0.659252 -0.996679 0
0.669426 -0.993056 0
0.682323 -0.957251 0
0.651198 -0.892843 0
0.638228 -0.886529 0
0.575104 -0.883252 0
0.601606 -1 0
-0.422885 0.241326 0
-0.417645 0.249971 0
-0.411647 0.259868 0
-0.401665 0.276339 0
-0.395517 0.286484 0
-0.329833 0.394861 0
-0.367551 0.393847 0
-0.378564 0.393551 0
-0.48045 0.390811 0
-0.497637 0.390349 0
-0.626884 0.386873 0
-0.627436 0.379954 0
-0.627091 0.379365 0
-0.612531 0.354528 0
-0.598859 0.331208 0
-0.56719 0.277188 0
-0.543092 0.236082 0
-0.422885 0.241326 0
-1 -0.788031 0
-0.971716 -0.793713 0
-0.966234 -0.794814 0
-0.966232 -0.794814 0
-0.96323 -0.795417 0
-0.949999 -0.790256 0
-0.945603 -0.788542 0
-0.932883 -0.78358 0
-0.913706 -0.776101 0
-0.859202 -0.629121 0
-0.877329 -0.612365 0
-1 -0.619546 0
-1 -0.788031 0
-0.8552 0.950732 0
-0.82765 0.993931 0
-0.828292 1 0
-0.946113 1 0
-0.942869 0.994027 0
-0.941531 0.991564 0
-0.941522 0.991548 0
-0.941512 0.991529 0
-0.934841 0.979247 0
-0.909686 0.97024 0
-0.8552 0.950732 0
0.0392124 -0.982764 0
0.0676875 -1 0
0.143121 -1 0
0.143121 -1 0
0.143121 -1 0
0.143126 -0.999999 0
0.14313 -0.999999 0
0.143317 -0.999974 0
0.143551 -0.999943 0
0.143797 -0.999911 0
0.162054 -0.997507 0
0.201115 -0.975664 0
0.170638 -0.832789 0
0.112741 -0.827698 0
0.0392124 -0.982764 0
0.512686 -0.641539 0
0.591594 -0.712567 0
0.659156 -0.671805 0
0.661955 -0.66738 0
0.662035 -0.667253 0
0.662111 -0.667132 0
0.663481 -0.664966 0
0.571813 -0.543281 0
0.532194 -0.609121 0
0.512686 -0.641539 0
0.910081 0.98817 0
0.911788 0.989189 0
0.913626 0.990286 0
0.913813 0.990397 0
0.929901 1 0
0.870044 1 0
0.870044 1 0
0.868148 0.997625 0
0.910081 0.98817 0
-0.411556 0.057498 0
-0.307694 0.0387096 0
-0.260304 0.1406 0
-0.260073 0.141097 0
-0.263027 0.149249 0
-0.421976 0.239587 0
-0.411556 0.057498 0
0.83103 -1 0
0.90277 -1 0
0.903953 -0.996441 0
0.901801 -0.995954 0
0.901572 -0.995903 0
0.893283 -0.99403 0
0.882939 -0.991693 0
0.862272 -0.987023 0
0.856887 -0.986586 0
0.83103 -1 0
-1 0.532564 0
-0.959429 0.491278 0
-0.888325 0.501148 0
-0.875961 0.509772 0
-0.872354 0.512287 0
-0.864643 0.517665 0
-0.844345 0.531822 0
-0.820889 0.548181 0
-0.809467 0.598639 0
-0.848552 0.674451 0
-1 0.695299 0
-1 0.532564 0
-0.344478 -0.853997 0
-0.342653 -0.89186 0
-0.332353 -0.890214 0
-0.321997 -0.888558 0
-0.318896 -0.888063 0
-0.289585 -0.883378 0
-0.27776 -0.881488 0
-0.263543 -0.861771 0
-0.26604 -0.82629 0
-0.267218 -0.809554 0
-0.268091 -0.797156 0
-0.268429 -0.792354 0
-0.273489 -0.72046 0
-0.335287 -0.836708 0
-0.344478 -0.853997 0
-0.131852 0.997625 0
-0.130272 0.999604 0
-0.130271 0.999606 0
-0.130001 0.999944 0
-0.129956 1 0
-0.146265 1 0
-0.131852 0.997625 0
1 -0.653731 0
1 -0.559192 0
0.999807 -0.559173 0
0.991455 -0.558314 0
0.990468 -0.558213 0
0.922217 -0.551197 0
1 -0.653731 0
-0.446673 -0.574001 0
-0.416327 -0.523572 0
-0.412298 -0.516877 0
-0.462182 -0.485015 0
-0.47422 -0.477326 0
-0.47885 -0.474368 0
-0.484478 -0.470774 0
-0.487479 -0.468857 0
-0.493482 -0.465023 0
-0.60372 -0.513354 0
-0.607429 -0.523542 0
-0.615023 -0.544395 0
-0.498652 -0.640471 0
-0.487314 -0.641539 0
-0.446673 -0.574001 0
0.162982 0.255476 0
0.221075 0.201973 0
0.362866 0.258416 0
0.373116 0.386873 0
0.361082 0.426614 0
0.310049 0.460708 0
0.251353 0.49992 0
0.227272 0.516007 0
0.219245 0.521369 0
0.179111 0.548181 0
0.111675 0.501148 0
0.162982 0.255476 0
0.112741 -0.827698 0
0.170638 -0.832789 0
0.226544 -0.770667 0
0.147373 -0.644488 0
0.138093 -0.652964 0
0.128813 -0.66144 0
0.0862938 -0.776101 0
0.112741 -0.827698 0
-0.541687 0.993191 0
-0.508264 1 0
-0.544887 1 0
-0.541687 0.993191 0
-0.127209 0.139757 0
-0.118615 0.132016 0
-0.115113 0.128862 0
-0.0229182 0.0946742 0
-0.0167851 0.123923 0
-0.00260248 0.19156 0
-0.0172829 0.235126 0
-0.019118 0.240572 0
-0.0230624 0.252277 0
-0.0601844 0.271517 0
-0.0804075 0.275067 0
-0.131222 0.263887 0
-0.130574 0.243835 0
-0.129474 0.209797 0
-0.128706 0.186043 0
-0.127228 0.140325 0
-0.127209 0.139757 0
0.87313 -0.722775 0
0.962722 -0.764561 0
0.96664 -0.766388 0
1 -0.751121 0
1 -0.653731 0
0.922217 -0.551197 0
0.854091 -0.535907 0
0.846814 -0.552828 0
0.833106 -0.584701 0
0.822251 -0.609939 0
0.87313 -0.722775 0
-0.556932 -0.730112 0
-0.498652 -0.640471 0
-0.615023 -0.544395 0
-0.677863 -0.637985 0
-0.556932 -0.730112 0
0.0791713 -0.409384 0
0.0943094 -0.413949 0
0.170509 -0.361074 0
0.181419 -0.353504 0
0.234622 -0.316587 0
0.0930494 -0.294998 0
0.0791713 -0.409384 0
-0.621241 0.445243 0
-0.590307 0.477844 0
-0.588184 0.523915 0
-0.59123 0.580125 0
-0.591402 0.583303 0
-0.593465 0.621366 0
-0.599076 0.724916 0
-0.61528 0.726356 0
-0.809467 0.598639 0
-0.820889 0.548181 0
-0.638918 0.426614 0
-0.621241 0.445243 0
-0.0804075 0.275067 0
-0.0601844 0.271517 0
-0.0463004 0.295218 0
0.0132315 0.434418 0
0.0146033 0.465691 0
-0.0544189 0.436741 0
-0.0804075 0.275067 0
-0.134093 -0.836486 0
-0.118715 -0.864083 0
-0.106846 -0.885382 0
-0.106108 -0.886708 0
-0.09411 -0.908239 0
-0.0179545 -0.917266 0
-0.0278237 -0.820611 0
-0.0438831 -0.797784 0
-0.0564514 -0.77992 0
-0.0818982 -0.74375 0
-0.131297 -0.720711 0
-0.134093 -0.836486 0
0.170638 -0.832789 0
0.201115 -0.975664 0
0.298665 -0.95661 0
0.316176 -0.939789 0
0.321168 -0.926762 0
0.321836 -0.925017 0
0.322283 -0.923851 0
0.322672 -0.922835 0
0.322916 -0.9222 0
0.322935 -0.92215 0
0.32294 -0.922137 0
0.32295 -0.922109 0
0.293562 -0.801048 0
0.291135 -0.799948 0
0.281427 -0.795547 0
0.273738 -0.792061 0
0.272941 -0.7917 0
0.226544 -0.770667 0
0.170638 -0.832789 0
0.460838 -0.000923953 0
0.588444 0.057498 0
0.58203 0.16957 0
0.58195 0.169614 0
0.515639 0.206678 0
0.489115 0.221504 0
0.4732 0.230399 0
0.46259 0.236329 0
0.396527 0.233447 0
0.418343 0.150984 0
0.422244 0.136237 0
0.433562 0.093454 0
0.458252 0.000125194 0
0.460838 -0.000923953 0
0.0720223 -0.278386 0
0.0930494 -0.294998 0
0.234622 -0.316587 0
0.267348 -0.307267 0
0.274554 -0.283439 0
0.0939784 -0.135351 0
0.0812132 -0.218511 0
0.0796969 -0.228389 0
0.076097 -0.251841 0
0.0737384 -0.267206 0
0.0721637 -0.277464 0
0.0720223 -0.278386 0
-0.0463004 0.295218 0
-0.0601844 0.271517 0
-0.0230624 0.252277 0
0.0281657 0.293808 0
0.0199702 0.342831 0
0.00556533 0.332482 0
-0.0463004 0.295218 0
-0.556932 -0.730112 0
-0.529257 -0.7664 0
-0.504548 -0.787585 0
-0.433147 -0.744031 0
-0.422454 -0.730432 0
-0.414025 -0.719713 0
-0.41262 -0.717927 0
-0.412018 -0.717161 0
-0.410574 -0.715324 0
-0.408406 -0.712567 0
-0.44786 -0.677053 0
-0.487314 -0.641539 0
-0.498652 -0.640471 0
-0.556932 -0.730112 0
-0.590307 0.477844 0
-0.536606 0.50069 0
-0.512492 0.510949 0
-0.510144 0.511948 0
-0.405093 0.55664 0
-0.456933 0.702437 0
-0.471223 0.683001 0
-0.478368 0.673283 0
-0.483489 0.666317 0
-0.513839 0.625036 0
-0.588184 0.523915 0
-0.590307 0.477844 0
0.825325 -0.0785298 0
0.903705 -0.0393286 0
0.945442 -0.0184541 0
0.999168 0.0084168 0
1 0.00883281 0
1 0.0642767 0
0.977082 0.0946742 0
0.960426 0.100851 0
0.960129 0.100817 0
0.959534 0.100748 0
0.95775 0.100544 0
0.952399 0.0999302 0
0.859632 0.0892934 0
0.779524 -0.0362204 0
0.825325 -0.0785298 0
-0.27776 -0.881488 0
-0.268143 -0.888672 0
-0.247707 -0.903938 0
-0.235373 -0.913152 0
-0.197863 -0.941174 0
-0.17171 -0.912016 0
-0.197802 -0.832337 0
-0.216204 -0.840576 0
-0.233639 -0.848382 0
-0.239751 -0.851119 0
-0.263543 -0.861771 0
-0.27776 -0.881488 0
-0.124551 0.717468 0
-0.118977 0.711676 0
0.151448 0.674451 0
0.134966 0.750565 0
-0.0437945 0.814598 0
-0.128962 0.752503 0
-0.124551 0.717468 0
-0.236917 0.351563 0
-0.229474 0.336849 0
-0.131222 0.263887 0
-0.0804075 0.275067 0
-0.0544189 0.436741 0
-0.235016 0.406423 0
-0.24299 0.400695 0
-0.250965 0.394967 0
-0.256764 0.390801 0
-0.236917 0.351563 0
0.469501 -0.0219817 0
0.468814 -0.096559 0
0.468638 -0.115673 0
0.468197 -0.163539 0
0.497911 -0.188714 0
0.631227 -0.217721 0
0.627315 -0.178407 0
0.625781 -0.162994 0
0.625748 -0.162664 0
0.625039 -0.155544 0
0.62477 -0.152843 0
0.624441 -0.149537 0
0.624019 -0.145296 0
0.62375 -0.142593 0
0.623399 -0.139068 0
0.46953 -0.0188166 0
0.469501 -0.0219817 0
-0.789701 0.907577 0
-0.68661 0.998928 0
-0.687011 0.999784 0
-0.687072 0.999915 0
-0.687092 0.999957 0
-0.687103 0.99998 0
-0.687111 0.999997 0
-0.687112 1 0
-0.797773 1 0
-0.82765 0.993931 0
-0.8552 0.950732 0
-0.849093 0.93349 0
-0.843088 0.916534 0
-0.842865 0.915906 0
-0.842679 0.915381 0
-0.842644 0.915281 0
-0.842478 0.914812 0
-0.789701 0.907577 0
-0.394063 0.547235 0
-0.320672 0.587642 0
-0.248749 0.62724 0
-0.266919 0.646839 0
-0.282259 0.653692 0
-0.316988 0.669206 0
-0.40797 0.70985 0
-0.467387 0.736393 0
-0.456933 0.702437 0
-0.405093 0.55664 0
-0.394063 0.547235 0
0.739927 0.141097 0
0.781963 0.140673 0
0.791823 0.147723 0
0.87071 0.204127 0
0.870633 0.206501 0
0.820769 0.249527 0
0.770904 0.292552 0
0.722727 0.188561 0
0.739927 0.141097 0
-0.751696 -0.432374 0
-0.722598 -0.405002 0
-0.712017 -0.395049 0
-0.732636 -0.307318 0
-0.732652 -0.307267 0
-0.736308 -0.308308 0
-0.739964 -0.30935 0
-0.747277 -0.311432 0
-0.750652 -0.312393 0
-0.756651 -0.314102 0
-0.765378 -0.316587 0
-0.919838 -0.423766 0
-0.897966 -0.477475 0
-0.884505 -0.510527 0
-0.88318 -0.513782 0
-0.870732 -0.544348 0
-0.751696 -0.432374 0
0.46999 -0.300322 0
0.469993 -0.300324 0
0.469999 -0.30033 0
0.470013 -0.300343 0
0.470105 -0.300426 0
0.470721 -0.300987 0
0.473807 -0.303795 0
0.494048 -0.322212 0
0.511647 -0.315684 0
0.652438 -0.263455 0
0.653769 -0.261893 0
0.654656 -0.260851 0
0.631227 -0.217721 0
0.497911 -0.188714 0
0.46999 -0.300322 0
0.411816 0.523915 0
0.540953 0.699561 0
0.541772 0.701771 0
0.542592 0.70398 0
0.536358 0.724228 0
0.534505 0.724926 0
0.504636 0.736173 0
0.462507 0.752038 0
0.427425 0.765249 0
0.400291 0.736597 0
0.402226 0.700897 0
0.407269 0.607819 0
0.409147 0.573177 0
0.411816 0.523915 0
-0.712017 -0.395049 0
-0.60372 -0.513354 0
-0.493482 -0.465023 0
-0.482677 -0.403287 0
-0.494867 -0.391416 0
-0.732636 -0.307318 0
-0.712017 -0.395049 0
-0.858283 0.868927 0
-0.852063 0.786422 0
-0.828072 0.79352 0
-0.816537 0.796932 0
-0.686588 0.83538 0
-0.687167 0.839272 0
-0.688237 0.846463 0
-0.688356 0.84726 0
-0.789701 0.907577 0
-0.842478 0.914812 0
-0.858283 0.868927 0
-0.248749 0.62724 0
-0.200813 0.634169 0
-0.124551 0.717468 0
-0.128962 0.752503 0
-0.310323 0.891248 0
-0.387295 0.83514 0
-0.332323 0.749148 0
-0.310334 0.714751 0
-0.310255 0.714627 0
-0.266919 0.646839 0
-0.248749 0.62724 0
-1 -0.39745 0
-0.922376 -0.422134 0
-0.909264 -0.314069 0
-0.909256 -0.313998 0
-0.90833 -0.306371 0
-0.906951 -0.294998 0
-1 -0.221484 0
-1 -0.39745 0
-0.0203302 0.878296 0
-0.0206858 0.87004 0
0.141717 0.868927 0
0.157522 0.914812 0
0.145136 0.949784 0
0.1448 0.950732 0
0.14298 0.951384 0
0.0899824 0.970359 0
0.0651593 0.979247 0
-0.0203302 0.878296 0
0.876147 -0.373724 0
0.956381 -0.362256 0
1 -0.244326 0
1 -0.155899 0
0.957435 -0.170107 0
0.904043 -0.187927 0
0.834468 -0.21115 0
0.829622 -0.224318 0
0.827293 -0.230645 0
0.825706 -0.23496 0
0.822126 -0.244685 0
0.820457 -0.24922 0
0.812391 -0.271139 0
0.813537 -0.272984 0
0.813605 -0.273093 0
0.814125 -0.27393 0
0.816232 -0.277319 0
0.816523 -0.277788 0
0.819475 -0.282537 0
0.876147 -0.373724 0
0.721886 -0.0100706 0
0.779524 -0.0362204 0
0.859632 0.0892934 0
0.781963 0.140673 0
0.739927 0.141097 0
0.692306 0.0387096 0
0.721886 -0.0100706 0
0.134966 0.750565 0
0.147937 0.786422 0
0.147672 0.789934 0
0.147564 0.791363 0
0.147412 0.793385 0
0.147258 0.795428 0
0.14661 0.804026 0
0.146288 0.80829 0
0.141717 0.868927 0
-0.0206858 0.87004 0
-0.0437945 0.814598 0
0.134966 0.750565 0
-0.423614 0.813408 0
-0.413973 0.819177 0
-0.401468 0.82666 0
-0.399474 0.827853 0
-0.394826 0.830634 0
-0.387295 0.83514 0
-0.310323 0.891248 0
-0.302906 0.927653 0
-0.310391 0.942681 0
-0.325361 0.972739 0
-0.332846 0.987767 0
-0.353491 1 0
-0.508264 1 0
-0.541687 0.993191 0
-0.531696 0.916853 0
-0.519837 0.905269 0
-0.456593 0.843488 0
-0.42497 0.812597 0
-0.423614 0.813408 0
-0.732636 -0.307318 0
-0.494867 -0.391416 0
-0.548446 -0.325304 0
-0.579294 -0.287241 0
-0.582731 -0.282999 0
-0.583877 -0.281586 0
-0.586995 -0.277737 0
-0.587887 -0.276638 0
-0.668802 -0.243526 0
-0.681086 -0.241892 0
-0.725446 -0.283439 0
-0.732652 -0.307267 0
-0.732636 -0.307318 0
-0.789701 0.907577 0
-0.688356 0.84726 0
-0.674967 0.881585 0
-0.664525 0.908358 0
-0.654885 0.933072 0
-0.667507 0.970702 0
-0.667625 0.970881 0
-0.668138 0.971656 0
-0.669225 0.973296 0
-0.670943 0.975891 0
-0.670975 0.975939 0
-0.684851 0.996886 0
-0.685171 0.997257 0
-0.686164 0.998409 0
-0.686171 0.998418 0
-0.686328 0.9986 0
-0.686398 0.998682 0
-0.68661 0.998928 0
-0.789701 0.907577 0
0.623399 -0.139068 0
0.656228 -0.0960687 0
0.709454 -0.0263542 0
0.718778 -0.0141415 0
0.721886 -0.0100706 0
0.692306 0.0387096 0
0.588444 0.057498 0
0.460838 -0.000923953 0
0.465727 -0.0109886 0
0.467357 -0.0143434 0
0.46953 -0.0188166 0
0.623399 -0.139068 0
0.361082 0.426614 0
0.373116 0.386873 0
0.492896 0.390094 0
0.670604 0.426789 0
0.675456 0.431432 0
0.676208 0.432152 0
0.680419 0.436182 0
0.681121 0.436854 0
0.681472 0.43719 0
0.677158 0.459181 0
0.673107 0.460168 0
0.599632 0.478054 0
0.588731 0.480708 0
0.583158 0.482065 0
0.472642 0.480171 0
0.41275 0.479145 0
0.409693 0.477844 0
0.361082 0.426614 0
-0.0203302 0.878296 0
0.0651593 0.979247 0
0.0538873 1 0
-0.0700992 1 0
-0.0899191 0.98817 0
-0.0203302 0.878296 0
0.9537 0.295218 0
0.964117 0.302702 0
0.985647 0.318171 0
0.993621 0.3239 0
0.999177 0.327892 0
0.999199 0.327908 0
0.999466 0.328099 0
1 0.328483 0
1 0.403479 0
0.98658 0.372099 0
0.9537 0.295218 0
-0.654885 0.933072 0
-0.531696 0.916853 0
-0.541687 0.993191 0
-0.544887 1 0
-0.578249 1 0
-0.667507 0.970702 0
-0.654885 0.933072 0
0.151448 0.674451 0
0.164452 0.649227 0
0.168787 0.640818 0
0.180347 0.618397 0
0.182411 0.614393 0
0.190533 0.598639 0
0.260452 0.644625 0
0.400291 0.736597 0
0.427425 0.765249 0
0.414017 0.801635 0
0.379515 0.83051 0
0.375426 0.831151 0
0.374063 0.831365 0
0.371986 0.831691 0
0.355255 0.834316 0
0.328884 0.838454 0
0.325564 0.838975 0
0.254513 0.817954 0
0.192851 0.79971 0
0.170111 0.792982 0
0.151105 0.787359 0
0.148289 0.786526 0
0.147996 0.786439 0
0.147937 0.786422 0
0.134966 0.750565 0
0.151448 0.674451 0
-0.862505 -0.171038 0
-0.725446 -0.283439 0
-0.681086 -0.241892 0
-0.677486 -0.211258 0
-0.677108 -0.208037 0
-0.677015 -0.207243 0
-0.676981 -0.206957 0
-0.676715 -0.204693 0
-0.811547 0.043466 0
-0.823019 -0.0048213 0
-0.825075 -0.0134773 0
-0.849594 -0.116687 0
-0.850783 -0.121692 0
-0.862505 -0.171038 0
-0.542569 -0.00057121 0
-0.57437 0.00633654 0
-0.738311 0.0419472 0
-0.812879 0.0581447 0
-0.811578 0.0438057 0
-0.811559 0.0435979 0
-0.811547 0.043466 0
-0.676715 -0.204693 0
-0.648495 -0.165893 0
-0.638017 -0.151488 0
-0.635843 -0.148499 0
-0.625272 -0.133965 0
-0.607776 -0.109909 0
-0.593278 -0.0899763 0
-0.59034 -0.0859375 0
-0.542686 -0.0204172 0
-0.539911 -0.0114387 0
-0.541136 -0.00182767 0
-0.542569 -0.00057121 0
0.341977 -0.750913 0
0.293562 -0.801048 0
0.32295 -0.922109 0
0.519416 -0.830036 0
0.517643 -0.806613 0
0.437825 -0.738176 0
0.427483 -0.73293 0
0.394711 -0.739823 0
0.390809 -0.740643 0
0.341977 -0.750913 0
-0.587887 -0.276638 0
-0.519409 -0.257945 0
-0.502089 -0.188714 0
-0.510547 -0.181548 0
-0.517366 -0.184218 0
-0.519071 -0.184886 0
-0.51927 -0.184964 0
-0.53617 -0.191582 0
-0.563299 -0.202207 0
-0.61605 -0.222867 0
-0.668802 -0.243526 0
-0.587887 -0.276638 0
0.871038 0.752503 0
0.956206 0.814598 0
0.979314 0.87004 0
0.97946 0.873416 0
0.979576 0.87613 0
0.979618 0.877094 0
0.97964 0.877606 0
0.979647 0.877769 0
0.979655 0.877947 0
0.979664 0.87815 0
0.979667 0.87824 0
0.97967 0.878296 0
0.940054 0.940845 0
0.910081 0.98817 0
0.868148 0.997625 0
0.853735 1 0
0.835106 1 0
0.822449 0.789675 0
0.871038 0.752503 0
-0.065191 -0.526815 0
-0.0659093 -0.534283 0
-0.0676361 -0.55224 0
0.0433897 -0.563653 0
0.0392841 -0.409942 0
0.019476 -0.403643 0
-0.0511852 -0.381173 0
-0.065191 -0.526815 0
1 0.0642767 0
1 0.192734 0
0.997398 0.19156 0
0.989135 0.152158 0
0.98609 0.137632 0
0.984555 0.130316 0
0.977082 0.0946742 0
1 0.0642767 0
0.997398 0.19156 0
1 0.192734 0
1 0.270974 0
0.976938 0.252277 0
0.980008 0.243167 0
0.984876 0.22872 0
0.992814 0.205163 0
0.993652 0.202676 0
0.997398 0.19156 0
CELLS 82 1044
6 0 1 2 3 4 5
13 6 7 8 9 10 11 12 13 14 15 16 17 18
4 19 20 21 22
9 23 24 25 26 27 28 29 30 31
11 32 33 34 35 36 37 38 39 40 41 42
10 43 44 45 46 47 48 49 50 51 52
12 53 54 55 56 57 58 59 60 61 62 63 64
7 65 66 67 68 69 70 71
12 72 73 74 75 76 77 78 79 80 81 82 83
4 84 85 86 87
17 88 89 90 91 92 93 94 95 96 97 98 99 100 101 102 103 104
14 105 106 107 108 109 110 111 112 113 114 115 116 117 118
17 119 120 121 122 123 124 125 126 127 128 129 130 131 132 133 134 135
12 136 137 138 139 140 141 142 143 144 145 146 147
11 148 149 150 151 152 153 154 155 156 157 158
5 159 160 161 162 163
15 164 165 166 167 168 169 170 171 172 173 174 175 176 177 178
18 179 180 181 182 183 184 185 186 187 188 189 190 191 192 193 194 195 196
13 197 198 199 200 201 202 203 204 205 206 207 208 209
11 210 211 212 213 214 215 216 217 218 219 220
15 221 222 223 224 225 226 227 228 229 230 231 232 233 234 235
10 236 237 238 239 240 241 242 243 244 245
9 246 247 248 249 250 251 252 253 254
7 255 256 257 258 259 260 261
10 262 263 264 265 266 267 268 269 270 271
12 272 273 274 275 276 277 278 279 280 281 282 283
15 284 285 286 287 288 289 290 291 292 293 294 295 296 297 298
7 299 300 301 302 303 304 305
7 306 307 308 309 310 311 312
15 313 314 315 316 317 318 319 320 321 322 323 324 325 326 327
12 328 329 330 331 332 333 334 335 336 337 338 339
8 340 341 342 343 344 345 346 347
4 348 349 350 351
17 352 353 354 355 356 357 358 359 360 361 362 363 364 365 366 367 368
11 369 370 371 372 373 374 375 376 377 378 379
5 380 381 382 383 384
7 385 386 387 388 389 390 391
12 392 393 394 395 396 397 398 399 400 401 402 403
7 404 405 406 407 408 409 410
12 411 412 413 414 415 416 417 418 419 420 421 422
19 423 424 425 426 427 428 429 430 431 432 433 434 435 436 437 438 439 440 441
14 442 443 444 445 446 447 448 449 450 451 452 453 454 455
12 456 457 458 459 460 461 462 463 464 465 466 467
7 468 469 470 471 472 473 474
14 475 476 477 478 479 480 481 482 483 484 485 486 487 488
12 489 490 491 492 493 494 495 496 497 498 499 500
15 501 502 503 504 505 506 507 508 509 510 511 512 513 514 515
12 516 517 518 519 520 521 522 523 524 525 526 527
7 528 529 530 531 532 533 534
10 535 536 537 538 539 540 541 542 543 544
17 545 546 547 548 549 550 551 552 553 554 555 556 557 558 559 560 561
18 562 563 564 565 566 567 568 569 570 571 572 573 574 575 576 577 578 579
11 580 581 582 583 584 585 586 587 588 589 590
9 591 592 593 594 595 596 597 598 599
17 600 601 602 603 604 605 606 607 608 609 610 611 612 613 614 615 616
15 617 618 619 620 621 622 623 624 625 626 627 628 629 630 631
14 632 633 634 635 636 637 638 639 640 641 642 643 644 645
7 646 647 648 649 650 651 652
11 653 654 655 656 657 658 659 660 661 662 663
11 664 665 666 667 668 669 670 671 672 673 674
8 675 676 677 678 679 680 681 682
10 683 684 685 686 687 688 689 690 691 692
20 693 694 695 696 697 698 699 700 701 702 703 704 705 706 707 708 709 710 711 712
7 713 714 715 716 717 718 719
12 720 721 722 723 724 725 726 727 728 729 730 731
19 732 733 734 735 736 737 738 739 740 741 742 743 744 745 746 747 748 749 750
13 751 752 753 754 755 756 757 758 759 760 761 762 763
19 764 765 766 767 768 769 770 771 772 773 774 775 776 777 778 779 780 781 782
12 783 784 785 786 787 788 789 790 791 792 793 794
18 795 796 797 798 799 800 801 802 803 804 805 806 807 808 809 810 811 812
6 813 814 815 816 817 818
11 819 820 821 822 823 824 825 826 827 828 829
7 830 831 832 833 834 835 836
26 837 838 839 840 841 842 843 844 845 846 847 848 849 850 851 852 853 854 855 856 857 858 859 860 861 862
14 863 864 865 866 867 868 869 870 871 872 873 874 875 876
19 877 878 879 880 881 882 883 884 885 886 887 888 889 890 891 892 893 894 895
10 896 897 898 899 900 901 902 903 904 905
12 906 907 908 909 910 911 912 913 914 915 916 917
19 918 919 920 921 922 923 924 925 926 927 928 929 930 931 932 933 934 935 936
8 937 938 939 940 941 942 943 944
8 945 946 947 948 949 950 951 952
9 953 954 955 956 957 958 959 960 961
CELL_TYPES 82
7
7
7
7
7
7
7
7
7
7
7
7
7
7
7
7
7
7
7
7
7
7
7
7
7
7
7
7
7
7
7
7
7
7
7
7
7
7
7
7
7
7
7
7
7
7
7
7
7
7
7
7
7
7
7
7
7
7
7
7
7
7
7
7
7
7
7
7
7
7
7
7
7
7
7
7
7
7
7
7
7
7
CELL_DATA 82
FIELD FieldData 6
weight 1 82 float
 148.965 148.96 148.962 148.962 148.965 148.959 148.948 148.934 148.964 148.923 148.962 148.96 148.96 148.937 148.933 148.963 148.963 148.937 148.958 148.924 148.96 148.956 148.923 148.941 148.965 148.931 148.96 148.923 148.956 148.955 148.937 148.959 148.924 148.94 148.956 148.956 148.95 148.932 148.937 148.96 148.96 148.941 148.949 148.938 148.957 148.933 148.943 148.961 148.93 148.937 148.946 148.925 148.931 148.94 148.952 148.948 148.932 148.951 148.927 148.93 148.95 148.926 148.948 148.942 148.927 148.925 148.95 148.926 148.945 148.935 148.925 148.937 148.925 148.929 148.946 148.945 148.959 148.948 148.926 148.953 148.94 148.939
num 1 82 float
 66 122 135 123 71 218 183 34 174 50 177 1 139 125 150 41 56 159 102 109 16 91 46 138 22 134 155 171 105 18 110 104 90 57 153 44 189 115 108 73 82 128 28 136 181 39 198 67 10 130 43 149 59 141 199 88 156 168 126 167 179 42 52 7 92 112 147 111 70 53 103 175 152 190 101 214 17 187 83 15 213 215
kind 1 82 float
 0 0 0 0 0 0 0 0 0 0 0 0 0 0 0 0 0 0 0 0 0 0 0 0 0 0 0 0 0 0 0 0 0 0 0 0 0 0 0 0 0 0 0 0 0 0 0 0 0 0 0 0 0 0 0 0 0 0 0 0 0 0 0 0 0 0 0 0 0 0 0 0 0 0 0 0 0 0 0 0 0 0
centroid_x 1 82 float
 0.248969 0.769467 -0.98941 -0.518754 0.967142 0.611831 0.98515 -0.101179 -0.648786 -0.817905 0.747031 0.0378007 0.842549 0.0816937 -0.132047 -0.448392 0.62832 -0.481899 -0.942069 -0.881935 0.127276 0.58559 0.900412 -0.352584 0.867571 -0.915732 -0.298421 -0.136024 0.974072 -0.510994 0.241823 0.151237 -0.531612 -0.0690451 0.915961 -0.587708 0.135662 -0.679742 -0.0367393 -0.0806518 0.245703 0.495293 0.156647 -0.0114154 -0.486703 -0.493522 0.894962 -0.217927 0.0101136 -0.143054 0.539088 -0.785486 -0.369865 0.786567 -0.814662 0.550328 0.455278 -0.60586 -0.791752 -0.252798 -0.959022 0.0783273 0.914181 0.770111 0.0655392 -0.421252 -0.625666 -0.709972 0.601351 0.508579 -0.0127785 0.984567 -0.591893 0.267265 -0.773507 -0.675922 0.39476 -0.569871 0.889752 -0.0102386 0.992298 0.992233
centroid_y 1 82 float
 -0.983981 -0.815568 -0.987745 -0.92223 -0.988445 -0.791103 -0.322614 0.48621 -0.985928 0.997977 -0.944107 -0.869393 -0.849256 0.376552 0.609132 -0.961768 -0.94228 0.32562 -0.694681 0.982267 -0.926114 -0.637072 0.995944 0.128005 -0.995195 0.594689 -0.828118 0.999208 -0.58804 -0.54542 0.370783 -0.753469 0.99773 0.190136 -0.651746 -0.637898 -0.344829 0.572716 0.377051 -0.828455 -0.877503 0.12535 -0.247666 0.293178 -0.716345 0.577292 0.0188219 -0.88546 0.739228 0.356825 -0.134704 0.960742 0.638303 0.206436 -0.418374 -0.253032 0.669514 -0.412369 0.851612 0.756792 -0.330393 0.913153 -0.266313 0.0585179 0.822251 0.924668 -0.309313 0.92084 -0.0250975 0.437054 0.957909 0.342393 0.958161 0.737692 -0.143933 -0.0496672 -0.818635 -0.234338 0.877827 -0.479185 0.120282 0.236236
centroid_z 1 82 float
 0 0 0 0 0 0 0 0 0 0 0 0 0 0 0 0 0 0 0 0 0 0 0 0 0 0 0 0 0 0 0 0 0 0 0 0 0 0 0 0 0 0 0 0 0 0 0 0 0 0 0 0 0 0 0 0 0 0 0 0 0 0 0 0 0 0 0 0 0 0 0 0 0 0 0 0 0 0 0 0 0 0
