# vtk DataFile Version 3.0
vtk output
ASCII
DATASET UNSTRUCTURED_GRID
POINTS 26170 double
-609337 -3313.2 0
-598180 -3116.15 0
-600099 -2951.75 0
-614432 -3024.68 0
-624553 -3187.84 0
-622938 -3224.85 0
-609337 -3313.2 0
-367531 -4218.8 0
-341195 -4523.65 0
-337650 -4450.33 0
-338403 -4395.71 0
-349713 -4108.59 0
-367531 -4218.8 0
-304388 1001.3 0
-278534 971.192 0
-278909 1266.62 0
-284912 1268.57 0
-299194 1152.8 0
-304388 1001.3 0
51034.3 -4274.7 0
47922 -4417.01 0
76040.4 -4486.66 0
78124.9 -4248.82 0
52706.7 -4264.84 0
51034.3 -4274.7 0
851955 -4873 0
880941 -4938.01 0
878620 -4753.74 0
860210 -4636.67 0
850756 -4868.12 0
851955 -4873 0
198258 -2875.06 0
201472 -2959.21 0
226720 -3015.96 0
228879 -2988.25 0
230146 -2917.28 0
220549 -2732.73 0
198258 -2875.06 0
265432 1892.6 0
269666 1969.91 0
249984 2296.79 0
240084 2042.74 0
265432 1892.6 0
983776 -1805.88 0
1e+06 -1770.44 0
1e+06 -1589.47 0
999386 -1579.52 0
988663 -1531.08 0
976101 -1691.51 0
983776 -1805.88 0
-720205 -5112.43 0
-604717 -5112.43 0
-607685 -5102.65 0
-667935 -5047.73 0
-674372 -5045.6 0
-709313 -5044.05 0
-720205 -5112.43 0
-719008 3372 0
-682765 3309.67 0
-681701 3406.46 0
-684209 3482.97 0
-692195 3528.53 0
-709835 3494.34 0
-719008 3372 0
-440491 4234.82 0
-425523 4238.21 0
-423221 4255.39 0
-394089 4704.58 0
-394935 4717.84 0
-439911 4293.9 0
-440491 4234.82 0
-381670 -3954.58 0
-349932 -4091.31 0
-346443 -3885.59 0
-365741 -3814.8 0
-381670 -3954.58 0
-599944 -3421.62 0
-592720 -3448.78 0
-585154 -3461.81 0
-580095 -3360.3 0
-598180 -3116.15 0
-609337 -3313.2 0
-599944 -3421.62 0
-306447 973.646 0
-303781 808.949 0
-287053 779.256 0
-273292 854.51 0
-278534 971.192 0
-304388 1001.3 0
-306447 973.646 0
874151 -4462.04 0
880452 -4743.66 0
888236 -4770.7 0
905203 -4610.32 0
885728 -4475.03 0
874151 -4462.04 0
-439911 4293.9 0
-394935 4717.84 0
-396216 4750.71 0
-444651 4445.98 0
-439911 4293.9 0
954067 -1647.63 0
963353 -1338.12 0
951255 -1295.12 0
940616 -1465.55 0
946974 -1734.32 0
954067 -1647.63 0
240368 -3116.77 0
242210 -3106.74 0
251276 -2936.27 0
251719 -2736.09 0
243018 -2745.62 0
230146 -2917.28 0
228879 -2988.25 0
240368 -3116.77 0
-801030 -5112.43 0
-720205 -5112.43 0
-709313 -5044.05 0
-720753 -5033.57 0
-734517 -5030.96 0
-759506 -5041.1 0
-789185 -5070.29 0
-801030 -5112.43 0
-695708 3128.78 0
-680783 3187.99 0
-679655 3208.91 0
-682765 3309.67 0
-719008 3372 0
-722523 3355.25 0
-722601 3351.75 0
-695708 3128.78 0
289356 1858.99 0
270149 1968.79 0
269666 1969.91 0
265432 1892.6 0
266031 1734.98 0
281603 1628.54 0
284668 1636.61 0
289356 1858.99 0
-338403 -4395.71 0
-332185 -4096.53 0
-334316 -3967.07 0
-343449 -3882.05 0
-345683 -3883.05 0
-346443 -3885.59 0
-349932 -4091.31 0
-349713 -4108.59 0
-338403 -4395.71 0
-614432 -3024.68 0
-600099 -2951.75 0
-599950 -2947.75 0
-599655 -2926.32 0
-625867 -2722 0
-638803 -2739.06 0
-639344 -2765.09 0
-614432 -3024.68 0
-257454 -213.775 0
-257739 -196.79 0
-262921 -110.118 0
-278890 -379.826 0
-266768 -602.586 0
-260064 -414.051 0
-257454 -213.775 0
860210 -4636.67 0
878620 -4753.74 0
880452 -4743.66 0
874151 -4462.04 0
864845 -4403.92 0
861272 -4413.56 0
851209 -4471.86 0
860210 -4636.67 0
-398463 4357.19 0
-388016 4606.01 0
-389852 4658.08 0
-394089 4704.58 0
-423221 4255.39 0
-398463 4357.19 0
-516277 -5112.43 0
-389453 -5112.43 0
-388479 -5100.64 0
-389161 -5099.58 0
-486680 -5042.71 0
-508465 -5070 0
-516277 -5112.43 0
-718490 3040.97 0
-713183 3015.43 0
-708187 3017.23 0
-695708 3128.78 0
-722601 3351.75 0
-727131 3254.6 0
-718490 3040.97 0
950083 -1807.82 0
976101 -1691.51 0
988663 -1531.08 0
985599 -1478.29 0
954067 -1647.63 0
946974 -1734.32 0
946931 -1739.15 0
948742 -1794.16 0
950083 -1807.82 0
213825 -3281.02 0
213366 -3330.72 0
236986 -3294.46 0
240368 -3116.77 0
228879 -2988.25 0
226720 -3015.96 0
213825 -3281.02 0
304229 1608.15 0
306975 1918.56 0
304046 1929.19 0
289356 1858.99 0
284668 1636.61 0
299696 1579.95 0
304229 1608.15 0
-598180 -3116.15 0
-580095 -3360.3 0
-562998 -3303.26 0
-599950 -2947.75 0
-600099 -2951.75 0
-598180 -3116.15 0
-337650 -4450.33 0
-324045 -4497.02 0
-314375 -4334.23 0
-332185 -4096.53 0
-338403 -4395.71 0
-337650 -4450.33 0
-257454 -213.775 0
-234712 -597.208 0
-232124 -491.088 0
-237666 -166.553 0
-239736 -150.111 0
-257739 -196.79 0
-257454 -213.775 0
880452 -4743.66 0
878620 -4753.74 0
880941 -4938.01 0
894579 -5026.25 0
901107 -5015.38 0
915640 -4956.95 0
888236 -4770.7 0
880452 -4743.66 0
-858977 -5025.16 0
-874604 -5032.59 0
-870690 -5112.43 0
-801030 -5112.43 0
-789185 -5070.29 0
-858977 -5025.16 0
-394089 4704.58 0
-389852 4658.08 0
-358915 4780.3 0
-355629 4824.16 0
-383440 4880.51 0
-392792 4870.19 0
-395273 4816.28 0
-396136 4775.64 0
-396216 4750.71 0
-394935 4717.84 0
-394089 4704.58 0
985599 -1478.29 0
982165 -1337.79 0
963353 -1338.12 0
954067 -1647.63 0
985599 -1478.29 0
-722523 3355.25 0
-719008 3372 0
-709835 3494.34 0
-723977 3695.32 0
-739842 3546.31 0
-738396 3505.75 0
-722523 3355.25 0
217571 -2367.85 0
217516 -2375.19 0
222151 -2575.37 0
241083 -2573.98 0
246229 -2410.09 0
245747 -2387.45 0
224830 -2326.44 0
217571 -2367.85 0
-562998 -3303.26 0
-562002 -3303.25 0
-561005 -3212.7 0
-588779 -2867.66 0
-592916 -2853.97 0
-599655 -2926.32 0
-599950 -2947.75 0
-562998 -3303.26 0
-296332 -4583.31 0
-264668 -4640.77 0
-261201 -4599.85 0
-266436 -4463.64 0
-281677 -4380.52 0
-282972 -4375.97 0
-296332 -4583.31 0
-257739 -196.79 0
-239736 -150.111 0
-246351 117.663 0
-261661 65.4646 0
-264943 -24.3319 0
-262921 -110.118 0
-257739 -196.79 0
816575 -4139.78 0
818178 -4227.9 0
851459 -4264.71 0
851143 -4148.25 0
829413 -4029.11 0
816575 -4139.78 0
270149 1968.79 0
289356 1858.99 0
304046 1929.19 0
298450 2083.05 0
277400 2099.7 0
270149 1968.79 0
6100.58 -4084.85 0
43280.4 -4030.75 0
47044.9 -3905.8 0
42979.3 -3849.34 0
5767.08 -3996.14 0
6100.58 -4084.85 0
-1e+06 -5112.43 0
-870690 -5112.43 0
-874604 -5032.59 0
-941685 -5001.46 0
-945399 -5000.33 0
-965650 -4997.67 0
-1e+06 -4999.71 0
-1e+06 -5112.43 0
1e+06 -1589.47 0
1e+06 -1568.76 0
999386 -1579.52 0
1e+06 -1589.47 0
-389852 4658.08 0
-388016 4606.01 0
-378813 4516.01 0
-375660 4509.85 0
-356817 4586.22 0
-358915 4780.3 0
-389852 4658.08 0
-765463 3679.95 0
-739842 3546.31 0
-723977 3695.32 0
-723828 3700.07 0
-729909 3734.95 0
-764764 3766.86 0
-765925 3726.17 0
-765463 3679.95 0
220549 -2732.73 0
230146 -2917.28 0
243018 -2745.62 0
241083 -2573.98 0
222151 -2575.37 0
220549 -2732.73 0
-625867 -2722 0
-599655 -2926.32 0
-592916 -2853.97 0
-594880 -2757.26 0
-601846 -2650.01 0
-621378 -2643.9 0
-625867 -2722 0
-262527 114.66 0
-258398 466.111 0
-265340 597.849 0
-279904 309.625 0
-262527 114.66 0
-296332 -4583.31 0
-296602 -4584.52 0
-312087 -4707.87 0
-312726 -4726.2 0
-311327 -4752.68 0
-266095 -4724.54 0
-264668 -4640.77 0
-296332 -4583.31 0
818211 -4280.97 0
849981 -4468.15 0
850631 -4471.32 0
851209 -4471.86 0
861272 -4413.56 0
851459 -4264.71 0
818178 -4227.9 0
818211 -4280.97 0
-344598 4551.09 0
-340421 4592.75 0
-329130 4786.04 0
-355629 4824.16 0
-358915 4780.3 0
-356817 4586.22 0
-344598 4551.09 0
-533620 -5041.45 0
-577897 -5049.24 0
-600426 -5082.05 0
-607685 -5102.65 0
-604717 -5112.43 0
-516277 -5112.43 0
-508465 -5070 0
-533620 -5041.45 0
5767.08 -3996.14 0
42979.3 -3849.34 0
42527.6 -3826.63 0
10275.1 -3740.23 0
3643.63 -3833.55 0
5767.08 -3996.14 0
1e+06 -1568.76 0
1e+06 -1316.58 0
983716 -1312.51 0
982165 -1337.79 0
985599 -1478.29 0
988663 -1531.08 0
999386 -1579.52 0
1e+06 -1568.76 0
-692195 3528.53 0
-684209 3482.97 0
-672418 3697.89 0
-672777 3772.48 0
-673749 3795.68 0
-682915 3859.07 0
-694861 3728.41 0
-692195 3528.53 0
249984 2296.79 0
269666 1969.91 0
270149 1968.79 0
277400 2099.7 0
268988 2317.75 0
249473 2367.64 0
249984 2296.79 0
241083 -2573.98 0
243018 -2745.62 0
251719 -2736.09 0
261016 -2649.91 0
263172 -2602.97 0
263105 -2482.57 0
246229 -2410.09 0
241083 -2573.98 0
-311709 -4328 0
-296602 -4584.52 0
-296332 -4583.31 0
-282972 -4375.97 0
-298649 -4205.58 0
-311709 -4328 0
-645931 -2579.57 0
-638803 -2739.06 0
-625867 -2722 0
-621378 -2643.9 0
-628476 -2381.46 0
-645583 -2549.67 0
-645931 -2579.57 0
-261661 65.4646 0
-246351 117.663 0
-240325 200.981 0
-240364 202.33 0
-251129 428.705 0
-258398 466.111 0
-262527 114.66 0
-261661 65.4646 0
851459 -4264.71 0
861272 -4413.56 0
864845 -4403.92 0
874011 -4159.8 0
871211 -4094.6 0
866616 -4035.75 0
865783 -4034.35 0
851143 -4148.25 0
851459 -4264.71 0
-389453 -5112.43 0
-303886 -5112.43 0
-331530 -5030.97 0
-358961 -5009.07 0
-360854 -5011.58 0
-388479 -5100.64 0
-389453 -5112.43 0
47498.1 -3905.17 0
58615.5 -3910.53 0
77535.5 -3743.51 0
80257.9 -3702.17 0
71654.8 -3509.09 0
47498.1 -3905.17 0
951255 -1295.12 0
963353 -1338.12 0
982165 -1337.79 0
983716 -1312.51 0
983497 -1198.4 0
969852 -1097.17 0
949551 -1265.54 0
951255 -1295.12 0
-535041 4580.22 0
-504331 4722.07 0
-504248 4724.16 0
-503974 4779.23 0
-504733 4784.67 0
-529236 4856.69 0
-531057 4850.74 0
-538729 4604.23 0
-537967 4586.22 0
-535041 4580.22 0
-709835 3494.34 0
-692195 3528.53 0
-694861 3728.41 0
-719258 3730.83 0
-723828 3700.07 0
-723977 3695.32 0
-709835 3494.34 0
246229 -2410.09 0
263105 -2482.57 0
271189 -2345.97 0
261286 -2125.77 0
253852 -2165.28 0
245747 -2387.45 0
246229 -2410.09 0
-324045 -4497.02 0
-312087 -4707.87 0
-296602 -4584.52 0
-311709 -4328 0
-314375 -4334.23 0
-324045 -4497.02 0
-588779 -2867.66 0
-567250 -2846.92 0
-576195 -2529.98 0
-594880 -2757.26 0
-592916 -2853.97 0
-588779 -2867.66 0
277400 2099.7 0
298450 2083.05 0
295711 2301.57 0
290607 2326.59 0
268988 2317.75 0
277400 2099.7 0
-232124 -491.088 0
-214882 -547.994 0
-222161 -196.724 0
-223540 -173.126 0
-237666 -166.553 0
-232124 -491.088 0
874151 -4462.04 0
885728 -4475.03 0
892245 -4263.78 0
874011 -4159.8 0
864845 -4403.92 0
874151 -4462.04 0
-212524 -4898.77 0
-232331 -4942.72 0
-215965 -5112.43 0
-200475 -5112.43 0
-195945 -5083.91 0
-197343 -4939.84 0
-212524 -4898.77 0
-570933 4789.97 0
-538729 4604.23 0
-531057 4850.74 0
[...]
CELL_DATA 3760
FIELD FieldData 6
weight 1 3760 float
 8.90989e+11 1.51949e+11 4.00324e+14 1.91936e+13 1.18158e+14 2.82639e+11 2.49473e+14 2.1885e+13 3.47304e+15 8.8064e+14 1.08762e+15 2.61646e+09 3.65801e+11 3.75934e+14 9.12083e+13 1.11797e+15 3.25434e+13 1.06275e+12 2.79778e+15 8.32171e+14 2.37124e+14 -3.78194e+10 2.9282e+12 2.1826e+14 9.5227e+13 1.06887e+15 1.44188e+15 8.14865e+14 2.71663e+13 3.51392e+12 2.30886e+14 1.18652e+12 -1.45909e+10 2.28674e+14 1.14807e+14 1.6111e+15 1.19604e+15 3.11813e+13 9.1822e+14 2.70872e+11 2.05109e+12 7.98791e+11 2.5261e+14 5.38949e+13 2.63366e+14 6.26529e+12 1.71713e+15 3.02727e+13 1.1267e+15 9.74214e+14 -5.75216e+10 6.93733e+12 3.01786e+14 3.53156e+12 5.90835e+13 1.13276e+15 1.0546e+15 2.41175e+12 3.52701e+13 9.5248e+14 2.67854e+14 -2.2601e+10 8.58611e+10 9.97798e+12 2.95717e+14 5.36938e+13 2.02445e+15 1.75703e+12 4.66579e+13 1.30969e+15 9.45217e+14 7.9724e+11 2.8919e+11 9.00344e+12 2.71247e+14 2.32663e+14 6.38199e+13 1.11076e+15 1.33602e+15 5.32941e+12 5.23315e+13 1.02894e+15 -1.50978e+09 3.72983e+12 2.07016e+12 2.23737e+14 1.15018e+15 9.58136e+13 1.94023e+14 1.33362e+15 5.77381e+13 1.06547e+12 1.08377e+15 9.52649e+11 1.54018e+12 7.94475e+12 2.40239e+14 1.31606e+15 1.25547e+15 6.75659e+13 1.96703e+14 6.6404e+13 1.17657e+12 1.13729e+15 2.71234e+12 1.00845e+15 4.95098e+12 1.68268e+13 6.30774e+13 1.2998e+15 2.23301e+14 7.22605e+13 1.63407e+14 1.11424e+15 2.70687e+13 4.55807e+12 5.23305e+15 1.45785e+13 3.47963e+12 1.61981e+15 4.54728e+13 2.47447e+14 4.70452e+13 1.14463e+15 4.70506e+15 3.60699e+12 2.04156e+13 1.71214e+14 1.72432e+12 1.80386e+13 1.57088e+15 4.83238e+13 2.60609e+14 6.48372e+13 1.1666e+15 2.78267e+12 6.50627e+15 1.51908e+13 1.46597e+15 9.72528e+12 1.98511e+14 4.69894e+12 3.74864e+13 2.91439e+14 8.83755e+13 1.0701e+15 1.19367e+15 1.08729e+12 9.3333e+14 9.59193e+12 2.93715e+13 3.06432e+12 2.04471e+13 2.27403e+14 2.62959e+14 1.1744e+15 1.90544e+15 1.05226e+14 5.45632e+11 8.49248e+12 9.28352e+14 4.35407e+13 3.61492e+12 2.24822e+13 2.55319e+14 2.85025e+14 1.02954e+15 1.15517e+15 4.16096e+12 9.57332e+13 9.40633e+14 4.87225e+13 1.96574e+12 3.61328e+14 1.03937e+15 1.03819e+13 9.3769e+14 2.63022e+14 4.96058e+12 1.21368e+13 8.8997e+13 2.29312e+13 6.19483e+12 6.38313e+14 1.03359e+15 3.42841e+14 1.36917e+13 2.21297e+15 6.85253e+12 1.89017e+13 2.40157e+14 1.04296e+14 3.68806e+12 2.83733e+13 1.08435e+15 4.00998e+14 1.4036e+15 1.30282e+13 5.1245e+12 1.15158e+13 9.40483e+14 7.05031e+14 9.96317e+13 1.71838e+13 3.33862e+14 1.32858e+13 1.07754e+15 3.9938e+14 2.96336e+15 1.83595e+13 5.69625e+12 3.73607e+13 9.57058e+14 7.24825e+14 1.25353e+14 1.92833e+13 1.0025e+15 1.48576e+13 3.26681e+14 2.21341e+15 2.20097e+13 4.25985e+12 3.31116e+14 3.06503e+13 9.37347e+14 6.96893e+14 1.05123e+15 2.03263e+13 3.99968e+14 3.50557e+14 1.22423e+14 2.48902e+13 1.15543e+13 9.86484e+14 7.37688e+14 2.98722e+14 1.04998e+15 3.62956e+12 5.22393e+14 3.20157e+14 2.17188e+13 4.54862e+12 1.49455e+14 3.75775e+13 9.66675e+14 1.61677e+13 1.15463e+15 1.31109e+13 3.48668e+14 2.20067e+14 3.24278e+14 4.72439e+12 2.54362e+13 1.53381e+14 9.86526e+14 2.35223e+13 8.13339e+12 1.11093e+13 3.257e+14 1.19779e+15 2.45598e+14 1.11717e+12 2.26569e+13 1.04451e+15 9.50092e+13 3.70985e+14 2.45908e+13 3.95119e+12 3.53581e+14 1.12407e+15 1.86278e+13 3.08061e+14 2.0678e+13 1.04598e+15 2.2851e+12 2.33748e+13 8.62316e+13 3.89406e+14 2.32673e+12 1.13239e+15 3.83497e+14 1.58188e+13 1.57943e+14 1.19728e+13 1.05653e+15 4.27572e+11 3.57015e+13 1.13516e+14 5.72747e+11 3.77539e+14 1.96655e+13 1.16034e+15 7.87773e+13 3.75e+14 1.70861e+13 9.25822e+14 3.66214e+13 4.34708e+12 8.63335e+13 1.22634e+14 2.2332e+11 3.1346e+13 8.65109e+14 3.55211e+14 9.52245e+14 3.51896e+14 3.59142e+13 8.67458e+11 2.7306e+13 1.3424e+14 7.54048e+14 7.84125e+13 8.68455e+14 3.97579e+14 9.10048e+13 1.02937e+15 5.09618e+13 3.52981e+14 1.28275e+12 1.16406e+13 9.25056e+13 7.60564e+14 1.90854e+14 8.24339e+14 6.47846e+14 9.88886e+13 1.02355e+15 4.69213e+13 1.70481e+13 6.5352e+13 7.70687e+14 -9.92639e+09 9.5767e+14 3.9129e+14 5.68525e+13 1.81234e+14 7.07389e+14 1.02095e+15 7.25247e+11 6.45363e+13 1.98891e+13 4.05156e+13 8.22337e+14 2.91635e+11 1.17541e+14 9.9729e+14 5.39594e+13 2.12975e+14 1.02745e+15 2.75324e+14 8.0992e+13 1.48857e+12 3.46358e+13 4.20736e+13 8.4806e+14 9.08786e+13 1.36485e+12 9.15559e+14 6.92559e+14 1.21669e+15 1.69501e+14 8.41733e+13 7.04263e+12 2.30092e+13 4.67252e+13 2.96373e+14 7.19546e+13 7.5992e+14 1.51967e+12 2.79432e+14 9.45556e+14 1.11413e+15 7.75308e+13 1.99999e+14 2.06322e+12 2.92903e+13 6.7352e+13 7.92444e+14 5.38865e+13 9.65572e+14 4.1742e+14 3.18896e+12 3.55929e+14 1.11663e+15 7.18455e+13 2.33026e+14 2.37616e+12 5.88577e+13 8.01123e+14 5.03608e+13 3.97738e+14 8.04502e+14 1.48937e+12 1.15311e+15 6.0099e+13 3.84215e+14 7.64473e+13 3.98352e+12 7.83374e+14 2.64156e+14 5.94764e+14 4.63446e+13 3.6977e+13 8.88202e+14 1.28722e+12 2.89318e+15 6.19788e+13 4.08363e+14 6.4543e+13 3.22029e+11 4.46531e+14 8.22027e+14 4.29627e+13 4.33421e+13 2.36075e+14 8.13556e+14 6.20661e+13 1.89212e+12 3.39705e+15 1.08698e+11 5.48525e+13 3.83612e+14 4.8659e+13 3.42739e+13 8.64788e+14 1.18997e+14 7.96487e+14 2.39692e+14 1.26287e+14 2.6026e+12 5.53175e+15 4.69823e+13 5.69757e+10 4.148e+14 8.4434e+14 9.62024e+13 3.1697e+13 3.86812e+13 8.77044e+14 1.28479e+14 1.83752e+14 2.11866e+12 -1.08553e+11 5.03993e+13 6.71419e+13 6.32109e+15 4.28581e+13 4.00534e+13 8.45675e+14 9.07649e+13 1.39997e+15 1.61298e+14 1.43145e+12 2.44312e+13 5.47816e+15 3.94714e+13 7.46043e+13 2.264e+12 4.43805e+13 8.62819e+14 8.96927e+13 1.46928e+15 1.61998e+14 2.01969e+13 6.89795e+13 1.32874e+12 5.47645e+15 2.96633e+13 4.14255e+12 8.71945e+14 2.75864e+13 5.69972e+13 9.63699e+14 1.40129e+13 6.98371e+15 1.92008e+13 1.93403e+14 2.14214e+13 6.92963e+12 5.57747e+10 9.21679e+14 6.15669e+13 3.1663e+13 9.35928e+14 7.02664e+15 1.16398e+13 3.1544e+13 1.54794e+13 2.1684e+14 5.01226e+12 6.23978e+13 1.00673e+15 -2.03893e+10 6.04778e+13 9.51885e+14 3.77934e+13 3.51549e+15 6.932e+12 2.46707e+14 1.75415e+11 7.42331e+13 1.19231e+13 9.98792e+14 7.07658e+13 1.1685e+15 1.69728e+13 3.10534e+13 3.35342e+15 3.60238e+12 5.49137e+13 1.35879e+11 1.00584e+15 2.6024e+14 2.78003e+13 4.98802e+13 9.47695e+14 1.69007e+13 3.54936e+13 4.85313e+13 6.1227e+15 4.15415e+12 1.07483e+15 3.29026e+13 2.32238e+14 5.81986e+12 8.89003e+14 5.09376e+13 1.14841e+13 4.53777e+13 2.98728e+13 6.63493e+15 2.37735e+12 1.10989e+15 2.37337e+13 1.49208e+15 8.88555e+11 4.0252e+13 4.27565e+13 4.75308e+13 2.66911e+14 3.64016e+13 6.2704e+15 2.16789e+12 1.03395e+15 4.58488e+14 4.07222e+13 6.10205e+11 2.06104e+13 1.8966e+13 3.56715e+13 3.6685e+13 3.26497e+14 4.46681e+14 1.09677e+15 5.82754e+12 4.4398e+14 3.04765e+13 1.16085e+13 7.27501e+13 -9.16293e+10 2.96987e+13 3.89434e+13 2.93269e+14 2.04657e+13 4.54685e+14 1.08162e+15 4.92969e+14 2.90842e+13 1.43763e+13 -2.63855e+10 6.32526e+13 3.05661e+13 2.31785e+13 6.35477e+13 1.21038e+13 1.01867e+15 4.43673e+14 2.85377e+14 6.19629e+12 7.35955e+13 3.5798e+13 2.29989e+13 5.32781e+13 6.76297e+13 1.08883e+15 1.49396e+13 4.23693e+14 4.39372e+13 6.9589e+13 2.78235e+12 2.93361e+14 3.17012e+13 5.25794e+13 4.79074e+13 6.30806e+13 1.21115e+15 1.97123e+13 5.59812e+12 6.85763e+13 4.60318e+14 3.58482e+13 1.95742e+13 3.14309e+14 3.9408e+13 6.02893e+13 7.53642e+13 1.14987e+15 9.81165e+12 8.07192e+13 4.11912e+12 3.94499e+13 2.11075e+13 4.67125e+14 5.2697e+13 4.72006e+13 3.97308e+14 7.12291e+13 1.116e+15 3.17881e+12 2.25584e+13 1.95343e+13 8.20165e+13 5.24899e+13 2.75907e+13 4.55837e+14 5.19214e+13 1.08379e+15 3.5591e+14 1.02822e+14 4.30586e+12 1.63876e+13 8.67015e+13 4.47158e+13 1.40012e+13 3.01589e+13 4.22676e+14 6.314e+13 1.04314e+15 3.6549e+14 7.32544e+12 8.27702e+13 5.18387e+13 8.02617e+13 2.59087e+13 2.36948e+13 3.53787e+13 4.55026e+14 5.71693e+13 1.10054e+15 3.64322e+14 5.22837e+13 1.05638e+14 7.4616e+13 7.70582e+12 2.32762e+13 3.46955e+13 5.56582e+13 5.15704e+12 1.04301e+15 5.00865e+14 3.66674e+14 7.87668e+13 1.46609e+13 7.99897e+13 1.37439e+13 1.33458e+14 2.23076e+12 1.0562e+15 1.34521e+13 4.73597e+14 4.02686e+13 2.15581e+13 3.29448e+14 2.77511e+13 1.01765e+12 2.27227e+13 5.93118e+12 2.17933e+13 1.47964e+14 1.23943e+15 4.60485e+13 2.20923e+13 1.03712e+14 7.65637e+12 1.36548e+13 1.24241e+15 4.90568e+14 2.48107e+13 9.92055e+12 3.04324e+14 4.86776e+14 1.38914e+14 3.81332e+13 7.17809e+12 9.76867e+13 1.1885e+15 1.38584e+12 8.47746e+13 1.49572e+13 4.68502e+14 5.30454e+14 2.78148e+14 7.95449e+13 1.12403e+13 1.44222e+14 2.80743e+13 1.25479e+15 1.03558e+14 6.28445e+11 1.11044e+14 4.95148e+14 1.73356e+13 5.19661e+14 7.10694e+13 1.2576e+13 3.06523e+14 8.88998e+13 2.22573e+13 1.30467e+14 1.74988e+12 1.41664e+15 4.76209e+14 1.02077e+14 7.60937e+12 4.35634e+14 7.40387e+13 2.31883e+13 4.01055e+14 2.60492e+13 1.24828e+12 5.31879e+14 1.4297e+14 1.02214e+14 1.40937e+15 8.11476e+13 2.83224e+13 4.69641e+14 5.75135e+13 2.38394e+13 2.03303e+13 3.91743e+14 5.65737e+14 6.51525e+11 1.48626e+15 1.29794e+14 7.98487e+13 8.07129e+13 3.57327e+13 1.00217e+14 2.52226e+13 4.175e+14 2.76109e+13 1.57518e+14 1.49115e+15 6.04517e+14 2.13268e+11 1.36186e+14 4.89009e+13 1.43649e+14 8.46334e+13 2.0098e+13 1.27094e+13 2.1942e+13 4.28249e+14 1.50537e+15 5.41675e+14 3.95044e+12 1.79488e+14 1.24608e+14 7.34691e+13 1.14283e+14 -5.615e+10 4.15644e+13 2.44125e+13 8.87283e+13 1.55321e+15 5.81166e+14 5.32907e+14 1.99257e+14 5.53497e+13 1.12045e+14 -3.48677e+10 4.47423e+13 1.70199e+13 1.31134e+14 4.1911e+14 9.72459e+13 1.33938e+15 4.65e+12 5.12684e+14 9.53559e+13 1.79781e+14 9.96956e+13 4.5552e+11 3.52138e+13 1.12137e+13 4.30973e+13 4.32003e+14 1.01669e+14 1.37197e+15 1.03059e+13 5.05359e+14 1.01608e+14 5.43932e+13 1.82795e+14 1.1939e+14 1.92601e+13 5.73673e+12 4.63292e+14 5.26973e+13 1.33246e+15 1.19662e+14 7.07439e+12 7.54281e+13 4.18514e+13 4.95573e+14 3.38167e+13 1.67346e+14 1.07028e+14 2.13267e+12 4.46216e+14 1.44061e+15 1.28149e+14 3.97959e+13 9.53154e+12 6.38491e+13 2.51876e+13 5.04155e+14 3.32214e+13 3.00319e+12 1.44819e+14 4.45842e+14 1.71135e+14 1.40656e+15 1.03539e+14 4.74861e+13 2.74764e+11 2.82217e+13 6.92077e+13 2.62776e+13 5.28163e+14 4.44552e+14 4.03512e+10 1.35162e+15 1.25639e+14 2.62493e+14 1.00387e+14 3.87168e+13 1.55451e+11 4.72295e+13 3.23972e+13 5.02674e+13 1.51449e+15 4.20381e+14 1.20028e+12 1.62786e+14 8.97398e+13 4.34509e+13 2.39032e+14 1.53771e+11 2.8225e+13 6.04537e+13 2.75629e+13 1.40792e+15 4.64874e+14 5.2915e+12 1.17544e+14 1.83575e+14 6.85521e+13 5.50102e+12 2.64627e+14 1.23505e+13 3.32667e+13 6.4803e+13 1.3202e+15 4.48786e+14 6.42835e+12 1.94283e+14 6.97591e+13 1.20323e+14 1.81392e+13 3.70426e+13 1.81496e+14 7.64128e+13 1.38741e+15 5.15974e+14 6.00627e+12 1.79217e+14 5.78772e+11 7.29567e+13 5.7033e+14 6.91991e+12 1.30131e+14 3.85262e+13 4.77361e+13 1.77482e+15 1.74724e+14 5.0194e+14 1.26959e+13 3.89439e+12 8.03699e+12 1.60663e+14 5.59341e+13 1.54735e+14 5.4027e+14 2.95598e+13 1.63961e+15 5.5246e+13 2.69155e+14 5.64089e+14 1.29506e+13 5.872e+12 2.06698e+12 1.81207e+14 1.4991e+14 3.20295e+13 4.36344e+13 5.76965e+14 2.64078e+15 5.43078e+14 4.70719e+13 1.37465e+13 2.30614e+14 1.01936e+13 7.79394e+12 1.40456e+14 2.57169e+13 1.75841e+14 2.60416e+13 5.64055e+14 4.24426e+14 5.88924e+13 5.69111e+14 8.06196e+12 2.30283e+13 2.19695e+14 1.82833e+14 1.72001e+13 1.57483e+14 2.30426e+13 1.61363e+13 4.20279e+14 5.63447e+14 6.35256e+13 5.40798e+14 3.25962e+13 1.67144e+13 2.3953e+14 2.06854e+14 1.4479e+13 2.99323e+13 2.12293e+14 5.57221e+14 7.05885e+13 4.36688e+14 1.98543e+13 1.39879e+13 5.79274e+14 2.73738e+13 1.73935e+14 2.51475e+14 1.21903e+13 1.93689e+14 2.80146e+13 4.97747e+14 4.37305e+14 1.53126e+13 1.78236e+13 6.30263e+13 5.64174e+14 1.56904e+14 2.38158e+14 6.66368e+12 2.63727e+13 2.15079e+14 4.47746e+14 5.13827e+14 1.26012e+13 2.22568e+13 4.66427e+12 1.59422e+14 1.3114e+13 2.2346e+14 3.2209e+14 1.35639e+13 2.21885e+13 6.45453e+13 3.3636e+13 1.02767e+11 4.68058e+14 5.7172e+14 1.43677e+14 1.79309e+12 1.17012e+14 3.74995e+13 6.73423e+12 3.83353e+12 2.83912e+14 5.02007e+13 4.15598e+14 2.73681e+13 5.8271e+14 1.57787e+14 1.01203e+12 1.12386e+14 8.33884e+13 2.67003e+13 6.3802e+14 5.16056e+14 6.64899e+13 3.54444e+13 2.03762e+14 6.37971e+12 3.23996e+14 4.81752e+12 6.06246e+13 1.5721e+14 6.27435e+14 4.47972e+13 4.6741e+14 6.86077e+11 4.7357e+13 1.7515e+13 1.8133e+14 6.49022e+13 5.11326e+11 3.06814e+14 1.39514e+14 6.79202e+14 2.0261e+14 2.53846e+13 4.60855e+12 4.96107e+14 1.00469e+13 9.72603e+13 5.64698e+13 2.02102e+12 6.8102e+14 1.4001e+14 2.97038e+14 4.54954e+13 1.76817e+14 1.03648e+13 1.86147e+13 7.91079e+13 5.23782e+14 5.62923e+13 4.35874e+12 6.65459e+14 2.03951e+14 1.39507e+14 1.19952e+13 2.80408e+14 2.53504e+12 8.57718e+13 2.50648e+13 5.7073e+14 3.75281e+13 2.00341e+12 6.63704e+14 6.98467e+14 8.92854e+13 1.46231e+14 9.0871e+12 4.1391e+14 1.7642e+13 3.52165e+13 4.83221e+13 9.19772e+13 6.17095e+14 1.80233e+13 6.52273e+14 9.87041e+13 6.74719e+14 3.65293e+12 1.46484e+14 3.79856e+14 1.01196e+13 3.32746e+13 5.16607e+13 6.28784e+14 1.12772e+14 6.39857e+14 9.92317e+13 6.40725e+14 1.19984e+13 1.54222e+14 5.01415e+13 1.15823e+13 3.60234e+14 3.58909e+13 1.4501e+13 6.18145e+14 1.51546e+14 5.84947e+14 1.46029e+13 1.18639e+14 1.58833e+13 4.26272e+13 6.41579e+14 5.04532e+13 1.49404e+14 4.05409e+14 6.1238e+14 1.51298e+13 1.18882e+13 1.33032e+14 1.15254e+14 5.57726e+14 8.19314e+13 5.03541e+13 1.77994e+14 5.18091e+13 5.38527e+14 3.77785e+14 6.96699e+14 7.95045e+12 1.2522e+14 1.39518e+13 6.33936e+13 8.76477e+13 1.42226e+14 5.69624e+14 1.67985e+14 4.69907e+13 5.59163e+14 3.21664e+14 7.24103e+14 2.85082e+12 1.32752e+14 3.01451e+13 3.91501e+13 1.16229e+14 1.31126e+14 2.00014e+14 5.82008e+14 6.79842e+13 2.59025e+12 7.47448e+14 3.02449e+14 5.91175e+14 2.90409e+13 9.81623e+13 3.82259e+13 1.11624e+14 2.14573e+14 3.77311e+12 6.34509e+13 7.38041e+14 9.41955e+13 5.47178e+14 2.71685e+14 4.86454e+13 9.59156e+13 1.19849e+13 1.01869e+14 5.91671e+13 6.91409e+12 2.09381e+14 2.77825e+14 6.23182e+14 1.79501e+13 1.12828e+14 2.20856e+13 4.8582e+13 8.24009e+13 7.13277e+14 5.70263e+14 1.71885e+14 6.81212e+13 3.22763e+13 2.78747e+13 2.8688e+14 7.86601e+13 9.36002e+13 6.39634e+14 8.0231e+13 8.05548e+14 5.71023e+14 1.21152e+12 7.81453e+13 1.81894e+14 2.59958e+13 1.69384e+13 3.53834e+14 7.10222e+13 8.15246e+13 8.18827e+14 1.21789e+14 6.23153e+14 8.35896e+12 5.47766e+14 8.01245e+13 2.21415e+13 2.09085e+14 2.33702e+13 5.37819e+13 3.34561e+14 1.16667e+14 7.82033e+14 9.86998e+13 4.63764e+14 6.65678e+12 2.17194e+13 5.95807e+14 8.47292e+13 2.64984e+13 2.18324e+14 6.26958e+13 7.39133e+14 1.69605e+14 3.46474e+14 4.61867e+14 3.63891e+11 1.49303e+14 4.08538e+13 6.16571e+14 1.95214e+13 2.63091e+14 9.41905e+13 1.02907e+14 7.30628e+14 1.45567e+14 3.92896e+14 1.01508e+11 4.97283e+13 4.2187e+14 1.29403e+14 6.22673e+14 1.79616e+13 2.50568e+14 4.07151e+13 9.79285e+13 1.72091e+14 7.73346e+14 4.03147e+14 8.26161e+11 3.94718e+13 4.46893e+14 2.02558e+13 6.61414e+14 8.98201e+13 1.41949e+14 5.50235e+13 2.66128e+14 4.47829e+14 1.49892e+14 8.10245e+14 6.76639e+11 4.65585e+13 4.68408e+14 1.83676e+13 9.84145e+13 4.90993e+14 2.81474e+14 6.09876e+14 2.0153e+14 1.17088e+14 6.05183e+14 8.26406e+12 1.48742e+13 6.77993e+13 4.99911e+14 5.30061e+14 6.04315e+13 1.94155e+14 6.15834e+14 3.08471e+14 6.03072e+12 6.44707e+14 1.17066e+14 1.28759e+13 4.31446e+13 5.11544e+14 6.59031e+13 2.07908e+14 6.88288e+13 2.61829e+14 5.06429e+14 1.56817e+14 6.21496e+14 4.1212e+13 9.54336e+12 4.41091e+11 1.79303e+14 4.71569e+14 4.59733e+13 5.87574e+13 2.44197e+14 4.63637e+14 6.59222e+14 1.03766e+13 6.60509e+14 4.42904e+13 1.78867e+11 1.61209e+14 1.38383e+14 4.15708e+14 5.00394e+13 3.72941e+13 2.3874e+14 4.1961e+14 7.75732e+12 6.32016e+13 4.70359e+14 6.55372e+14 4.7806e+12 1.39261e+14 1.68261e+14 5.17184e+13 2.61723e+13 4.32695e+14 4.37331e+14 2.61962e+14 1.48804e+13 5.6164e+13 6.37314e+14 4.59714e+14 6.66886e+12 1.63747e+14 2.82548e+13 4.66426e+13 1.9875e+14 4.88141e+14 1.1926e+13 4.54805e+14 5.9994e+13 2.41312e+14 6.13951e+14 2.07571e+14 4.65025e+14 1.07869e+12 3.84379e+13 4.59551e+13 7.5901e+12 5.03279e+14 1.69801e+14 6.19754e+13 5.2377e+14 6.50263e+14 2.31911e+14 1.9221e+14 4.61934e+14 4.98798e+12 7.29012e+13 3.16998e+13 1.04047e+13 4.95633e+14 5.65906e+13 2.45837e+14 6.29146e+14 2.36183e+14 5.15451e+14 1.75964e+14 4.59243e+14 1.93391e+13 2.07193e+13 6.15776e+13 7.22577e+12 6.28492e+13 6.67846e+14 5.48324e+14 5.1048e+14 2.85524e+14 2.48761e+14 2.50823e+14 1.10895e+13 4.69034e+14 2.16929e+13 8.62488e+12 8.2163e+13 5.42536e+13 2.15743e+14 7.06621e+14 3.04382e+14 5.26342e+14 5.26941e+14 2.29242e+14 4.55517e+14 9.72558e+12 2.84635e+13 8.64702e+13 1.4321e+13 6.73583e+14 4.83552e+14 3.36674e+14 1.40858e+12 2.20454e+14 5.67532e+14 2.25384e+14 1.7994e+13 2.47363e+13 1.36552e+13 5.0751e+14 1.22524e+14 7.74154e+14 2.25813e+14 3.24612e+14 2.73475e+12 5.00656e+14 6.10189e+14 3.13997e+13 1.73635e+14 3.23152e+13 2.02394e+13 5.24065e+14 9.5339e+13 7.92178e+14 2.95433e+14 9.14009e+11 5.04225e+14 3.37468e+14 2.43931e+13 4.57094e+13 6.01695e+14 3.14254e+13 2.03924e+14 5.25561e+14 8.34391e+14 7.86094e+13 4.8491e+12 2.74546e+14 6.11416e+14 3.50672e+14 1.72878e+13 2.91636e+13 2.30977e+13 1.9264e+14 6.33898e+14 8.08754e+14 2.67689e+14 4.22101e+14 6.23579e+14 1.92268e+13 9.40077e+13 3.69829e+14 3.1396e+13 1.9797e+13 3.08793e+13 7.70006e+14 5.84474e+14 2.06264e+14 2.37058e+14 4.85214e+14 2.50683e+13 5.62332e+14 7.75757e+13 3.57708e+14 4.36352e+13 2.52678e+13 1.49808e+13 7.76884e+14 2.45604e+14 5.5092e+14 2.28832e+14 2.64117e+13 5.85879e+14 3.21554e+14 1.25033e+14 1.82838e+13 1.42952e+13 2.55716e+13 5.66e+14 2.44874e+14 2.49588e+14 6.2636e+14 7.80399e+12 7.43694e+14 4.14026e+14 1.575e+13 1.70503e+13 1.04799e+14 5.25049e+14 2.05302e+13 2.22695e+14 1.00577e+13 5.90034e+14 2.36968e+14 6.64106e+14 2.70313e+13 8.25375e+14 2.66276e+14 5.63273e+14 1.19859e+14 1.73695e+13 1.16004e+13 2.62648e+14 4.60715e+13 6.72794e+14 8.33409e+14 2.60859e+14 6.24361e+14 2.41945e+14 5.64554e+14 2.99791e+13 1.06877e+14 1.8106e+13 1.40094e+13 2.90739e+14 4.32841e+13 6.4235e+14 4.19864e+14 2.67786e+14 6.2339e+14 2.22282e+14 3.05257e+13 5.4684e+14 6.70122e+12 1.51012e+13 1.52878e+14 3.12845e+14 4.58508e+13 4.24797e+14 7.20371e+14 2.43681e+14 6.39691e+14 2.54881e+13 2.43061e+14 6.98757e+12 7.34398e+12 6.33748e+14 1.94435e+14 3.16051e+14 5.99696e+13 4.61921e+14 6.97793e+14 3.01709e+14 2.65426e+13 6.3682e+12 3.95216e+12 6.6916e+14 3.37861e+14 6.52833e+14 3.22336e+14 1.84194e+14 6.14957e+13 4.95977e+14 6.06823e+14 9.79502e+12 3.06776e+14 5.43535e+13 2.70729e+12 3.52785e+14 5.54058e+14 6.72845e+14 5.33758e+13 1.76725e+14 4.82744e+14 2.92375e+14 5.69792e+14 8.52262e+12 6.60459e+13 2.85072e+14 3.89347e+14 2.27134e+12 7.3042e+14 5.90066e+14 4.11355e+13 5.06468e+14 6.40177e+14 2.76756e+14 3.59345e+14 6.19973e+14 4.52251e+13 2.68801e+14 7.32753e+14 7.13637e+12 5.05681e+13 7.71368e+14 3.10225e+14 5.76736e+14 6.76004e+14 4.09584e+14 6.08979e+13 2.42395e+14 7.54112e+14 1.90948e+14 4.01979e+13 -1.10442e+10 7.53389e+14 3.44477e+14 6.60885e+14 4.32863e+14 7.45721e+14 5.56325e+13 4.98977e+14 3.84318e+14 2.78055e+14 5.95221e+13 5.7032e+10 2.32468e+14 7.83669e+14 3.30162e+14 2.15112e+13 3.35072e+14 4.35058e+14 7.73409e+14 5.05782e+14 2.8229e+14 3.74206e+14 7.4937e+13 4.57879e+10 3.09465e+14 7.81236e+14 3.01393e+14 6.03812e+13 4.30007e+14 2.18231e+13 6.83255e+13 4.54051e+14 2.98549e+14 6.71038e+14 7.84208e+11 2.90754e+14 8.06008e+14 2.63649e+14 3.9882e+14 4.58301e+14 3.38627e+13 2.22982e+13 6.43675e+13 4.85315e+14 3.18554e+14 3.16091e+11 7.26542e+14 7.86204e+14 5.52446e+13 3.57404e+14 2.88164e+14 4.85761e+14 4.24013e+13 2.42033e+13 4.41302e+14 9.83682e+13 3.91572e+12 2.97997e+14 7.49196e+14 3.84253e+14 7.05588e+14 3.83271e+13 4.76853e+14 3.05597e+13 3.27334e+14 3.57432e+13 8.40714e+13 4.52925e+14 8.86247e+12 3.62375e+14 7.86076e+14 3.51766e+14 7.00691e+14 5.40435e+13 5.17368e+14 1.48577e+13 2.64488e+13 1.2015e+14 3.01722e+14 4.9007e+14 7.54746e+12 7.30657e+14 3.48377e+14 3.87324e+14 7.47828e+14 5.14649e+14 7.76872e+13 7.22507e+12 1.23325e+14 7.61738e+14 3.18719e+14 5.83894e+14 3.8583e+12 3.95946e+14 3.82582e+14 5.91792e+12 5.71395e+14 7.24681e+14 