# vtk DataFile Version 3.0
vtk output
ASCII
DATASET UNSTRUCTURED_GRID
POINTS 629 double
0.517596 0.0909471 0
0.632496 0 0
0.769139 0 0
0.649676 0.0732977 0
0.517596 0.0909471 0
0 0.454606 0
0.294536 0.328063 0
0.351639 0.303944 0
0.417305 0.303328 0
0.333416 0.348184 0
0 0.467123 0
0 0.454606 0
0 0.295007 0
0.139104 0.131702 0
0.149208 0.134543 0
0.130481 0.236289 0
0.087477 0.286541 0
0 0.314974 0
0 0.295007 0
0 0.467123 0
0.333416 0.348184 0
0.244415 0.422404 0
0 0.491016 0
0 0.467123 0
0 0.314974 0
0.087477 0.286541 0
0.237749 0.239009 0
0.327287 0.2232 0
0 0.366434 0
0 0.314974 0
0.130481 0.236289 0
0.149208 0.134543 0
0.27707 0.140738 0
0.306876 0.168206 0
0.130481 0.236289 0
0 0.491016 0
0.244415 0.422404 0
0.240328 0.42824 0
0.189987 0.459755 0
0 0.567022 0
0 0.491016 0
0 0.370811 0
0.66167 0.12912 0
0.67661 0.124541 0
0.56065 0.191867 0
0 0.375133 0
0 0.370811 0
0.411248 0.0979397 0
0.509889 0.0932611 0
0.364818 0.189157 0
0.306876 0.168206 0
0.27707 0.140738 0
0.411248 0.0979397 0
0.440494 0.294506 0
0.803739 0.122091 0
0.797444 0.137768 0
0.557124 0.286411 0
0.440494 0.294506 0
0.735336 0.13593 0
0.56065 0.191867 0
0.67661 0.124541 0
1 0.0159119 0
1 0.0320445 0
0.829083 0.100619 0
0.735336 0.13593 0
0.087477 0.286541 0
0.130481 0.236289 0
0.306876 0.168206 0
0.364818 0.189157 0
0.365326 0.198078 0
0.237749 0.239009 0
0.087477 0.286541 0
0 0.567022 0
0.189987 0.459755 0
0.154657 0.532633 0
0.0949642 0.576414 0
0 0.622049 0
0 0.567022 0
0 0.366434 0
0.327287 0.2232 0
0.66167 0.12912 0
0 0.370811 0
0 0.366434 0
0.797444 0.137768 0
0.826351 0.150736 0
0.845912 0.180044 0
0.558721 0.292797 0
0.55367 0.290334 0
0.557124 0.286411 0
0.797444 0.137768 0
0.364818 0.189157 0
0.509889 0.0932611 0
0.517596 0.0909471 0
0.649676 0.0732977 0
0.653141 0.075289 0
0.522018 0.151113 0
0.365326 0.198078 0
0.364818 0.189157 0
0.189987 0.459755 0
0.240328 0.42824 0
0.325993 0.394298 0
0.363884 0.430298 0
0.154657 0.532633 0
0.189987 0.459755 0
0.522018 0.151113 0
1 0.0119223 0
1 0.0159119 0
0.67661 0.124541 0
0.66167 0.12912 0
0.327287 0.2232 0
0.237749 0.239009 0
0.365326 0.198078 0
0.522018 0.151113 0
0.769139 0 0
1 0 0
1 0.00613168 0
0.653141 0.075289 0
0.649676 0.0732977 0
0.769139 0 0
0.244415 0.422404 0
0.333416 0.348184 0
0.417305 0.303328 0
0.440494 0.294506 0
0.557124 0.286411 0
0.55367 0.290334 0
0.325993 0.394298 0
0.240328 0.42824 0
0.244415 0.422404 0
0.0949642 0.576414 0
0.154657 0.532633 0
0.363884 0.430298 0
0.434683 0.408931 0
0.412105 0.452195 0
0.357803 0.477984 0
0.0949642 0.576414 0
0.116361 0.358667 0
0.709839 0.146462 0
0.351639 0.303944 0
0.294536 0.328063 0
0.116361 0.358667 0
0.522018 0.151113 0
0.653141 0.075289 0
1 0.00613168 0
1 0.0119223 0
0.522018 0.151113 0
0.55367 0.290334 0
0.558721 0.292797 0
0.558115 0.298715 0
0.506889 0.348138 0
0.434683 0.408931 0
0.363884 0.430298 0
0.325993 0.394298 0
0.55367 0.290334 0
0 0.375133 0
0.56065 0.191867 0
0.735336 0.13593 0
0.709839 0.146462 0
0.116361 0.358667 0
0 0.399028 0
0 0.375133 0
0.0480067 0.633158 0
0.316558 0.515724 0
0.361684 0.552486 0
0.279827 0.58893 0
0.0480067 0.633158 0
0 0.399028 0
0.116361 0.358667 0
0.294536 0.328063 0
0 0.454606 0
0 0.399028 0
0.829083 0.100619 0
1 0.0320445 0
1 0.0889132 0
0.826351 0.150736 0
0.797444 0.137768 0
0.803739 0.122091 0
0.829083 0.100619 0
0.558721 0.292797 0
0.845912 0.180044 0
0.884096 0.194332 0
0.734894 0.271942 0
0.558115 0.298715 0
0.558721 0.292797 0
0.558115 0.298715 0
0.734894 0.271942 0
0.606764 0.370174 0
0.506889 0.348138 0
0.558115 0.298715 0
0.709839 0.146462 0
0.735336 0.13593 0
0.829083 0.100619 0
0.803739 0.122091 0
0.440494 0.294506 0
0.417305 0.303328 0
0.351639 0.303944 0
0.709839 0.146462 0
0.357803 0.477984 0
0.412105 0.452195 0
0.534057 0.429453 0
0.394733 0.537895 0
0.361684 0.552486 0
0.316558 0.515724 0
0.357803 0.477984 0
0.845912 0.180044 0
0.826351 0.150736 0
1 0.0889132 0
1 0.155938 0
0.895693 0.192661 0
0.884096 0.194332 0
0.845912 0.180044 0
0.506889 0.348138 0
0.606764 0.370174 0
0.544613 0.423482 0
0.534057 0.429453 0
0.412105 0.452195 0
0.434683 0.408931 0
0.506889 0.348138 0
0.361684 0.552486 0
0.394733 0.537895 0
0.636378 0.436559 0
0.970827 0.317292 0
0.595852 0.474489 0
0.132903 0.65511 0
0.279827 0.58893 0
0.361684 0.552486 0
0 0.622049 0
0.0949642 0.576414 0
0.357803 0.477984 0
0.316558 0.515724 0
0.0480067 0.633158 0
0 0.646427 0
0 0.622049 0
0 0.646427 0
0.0480067 0.633158 0
0.279827 0.58893 0
0.132903 0.65511 0
0 0.713965 0
0 0.646427 0
0.742478 0.316448 0
0.895693 0.192661 0
1 0.155938 0
1 0.194656 0
0.882418 0.260921 0
0.742478 0.316448 0
0.970827 0.317292 0
1 0.306612 0
1 0.347352 0
0.83269 0.407293 0
0.595852 0.474489 0
0.970827 0.317292 0
0.636739 0.379956 0
0.742478 0.316448 0
0.882418 0.260921 0
0.747129 0.378734 0
0.672355 0.417101 0
0.636739 0.379956 0
0.734894 0.271942 0
0.884096 0.194332 0
0.895693 0.192661 0
0.742478 0.316448 0
0.636739 0.379956 0
0.544613 0.423482 0
0.606764 0.370174 0
0.734894 0.271942 0
0.587053 0.548587 0
0.59709 0.542611 0
0.816347 0.441137 0
1 0.368319 0
1 0.398001 0
0.864501 0.458102 0
0.587053 0.548587 0
0 0.713965 0
0.132903 0.65511 0
0.595852 0.474489 0
0.83269 0.407293 0
0 0.714061 0
0 0.713965 0
0.534057 0.429453 0
0.544613 0.423482 0
0.636739 0.379956 0
0.672355 0.417101 0
0.636378 0.436559 0
0.394733 0.537895 0
0.534057 0.429453 0
0 0.756435 0
0.59709 0.542611 0
0.587053 0.548587 0
0.494631 0.593089 0
0 0.780013 0
0 0.756435 0
0.216305 0.646008 0
1 0.353756 0
1 0.368319 0
0.816347 0.441137 0
0.559941 0.532879 0
0.216305 0.646008 0
0.882418 0.260921 0
1 0.194656 0
1 0.254418 0
0.747129 0.378734 0
0.882418 0.260921 0
0 0.714061 0
0.83269 0.407293 0
1 0.347352 0
1 0.353756 0
0.216305 0.646008 0
0 0.724693 0
0 0.714061 0
0 0.724693 0
0.216305 0.646008 0
0.559941 0.532879 0
0 0.755824 0
0 0.724693 0
0.747129 0.378734 0
1 0.254418 0
1 0.306612 0
0.970827 0.317292 0
0.636378 0.436559 0
0.672355 0.417101 0
0.747129 0.378734 0
0 0.780013 0
0.494631 0.593089 0
0.451033 0.636166 0
0.389352 0.658114 0
0 0.794951 0
0 0.780013 0
0.635406 0.572 0
0.626781 0.574913 0
0.864501 0.458102 0
1 0.398001 0
1 0.447427 0
0.635406 0.572 0
0 0.755824 0
0.559941 0.532879 0
0.816347 0.441137 0
0.59709 0.542611 0
0 0.756435 0
0 0.755824 0
0.346568 0.737134 0
0.541332 0.647376 0
0.644526 0.605441 0
0.817151 0.535919 0
0.560619 0.667742 0
0.285025 0.787315 0
0.346568 0.737134 0
0 0.794951 0
0.389352 0.658114 0
0 0.846318 0
0 0.794951 0
0.494631 0.593089 0
0.587053 0.548587 0
0.864501 0.458102 0
0.626781 0.574913 0
0.451033 0.636166 0
0.494631 0.593089 0
0 0.851669 0
0.541332 0.647376 0
0.346568 0.737134 0
0 0.883986 0
0 0.851669 0
0 0.850103 0
0.591714 0.598536 0
0.644526 0.605441 0
0.541332 0.647376 0
0 0.851669 0
0 0.850103 0
0 0.883986 0
0.346568 0.737134 0
0.285025 0.787315 0
0.188676 0.837435 0
0 0.919365 0
0 0.883986 0
0.620678 0.663028 0
0.560619 0.667742 0
0.817151 0.535919 0
1 0.46058 0
1 0.462961 0
0.745933 0.607375 0
0.620678 0.663028 0
0.591714 0.598536 0
0.635406 0.572 0
1 0.447427 0
1 0.46058 0
0.817151 0.535919 0
0.644526 0.605441 0
0.591714 0.598536 0
0.341997 0.802522 0
0.72036 0.654451 0
0.645845 0.702448 0
0.334031 0.841179 0
0.285953 0.832911 0
0.341997 0.802522 0
1 0.462961 0
1 0.521942 0
0.811972 0.604907 0
0.745933 0.607375 0
1 0.462961 0
0 0.846318 0
0.389352 0.658114 0
0.451033 0.636166 0
0.626781 0.574913 0
0.635406 0.572 0
0.591714 0.598536 0
0 0.850103 0
0 0.846318 0
0.363287 0.788399 0
0.620678 0.663028 0
0.745933 0.607375 0
0.811972 0.604907 0
0.72036 0.654451 0
0.341997 0.802522 0
0.363287 0.788399 0
0 0.949878 0
0.280652 0.835197 0
0.0360022 1 0
0 1 0
0 0.949878 0
0 0.919365 0
0.188676 0.837435 0
0.363287 0.788399 0
0.341997 0.802522 0
0.285953 0.832911 0
0.280652 0.835197 0
0 0.949878 0
0 0.919365 0
0.280652 0.835197 0
0.285953 0.832911 0
0.334031 0.841179 0
0.231563 0.919546 0
0.123539 0.976508 0
0.0383741 1 0
0.0360022 1 0
0.280652 0.835197 0
0.188676 0.837435 0
0.285025 0.787315 0
0.560619 0.667742 0
0.620678 0.663028 0
0.363287 0.788399 0
0.188676 0.837435 0
0.334031 0.841179 0
0.645845 0.702448 0
0.627274 0.733461 0
0.606174 0.745818 0
0.231563 0.919546 0
0.334031 0.841179 0
0.606174 0.745818 0
0.590359 0.775366 0
0.211501 0.953204 0
0.180195 0.961509 0
0.123539 0.976508 0
0.231563 0.919546 0
0.606174 0.745818 0
0.645845 0.702448 0
0.72036 0.654451 0
0.811972 0.604907 0
1 0.521942 0
1 0.52518 0
0.902904 0.595264 0
0.627274 0.733461 0
0.645845 0.702448 0
0.627274 0.733461 0
0.902904 0.595264 0
0.854627 0.658895 0
0.639094 0.761193 0
0.590359 0.775366 0
0.606174 0.745818 0
0.627274 0.733461 0
0.590359 0.775366 0
0.639094 0.761193 0
0.601942 0.792395 0
0.387442 0.907619 0
0.211501 0.953204 0
0.590359 0.775366 0
0.639094 0.761193 0
0.854627 0.658895 0
0.894571 0.656965 0
0.776524 0.753393 0
0.601942 0.792395 0
0.639094 0.761193 0
0 0 0
0.30264 0 0
0 0.066085 0
0 0 0
0.601942 0.792395 0
0.776524 0.753393 0
0.808629 0.756044 0
0.437119 0.895124 0
0.387442 0.907619 0
0.601942 0.792395 0
1 0.664814 0
1 0.75463 0
0.837435 0.794399 0
0.849148 0.75185 0
1 0.664814 0
0 0.066085 0
0.30264 0 0
0.391227 0 0
0 0.102243 0
0 0.066085 0
0.437119 0.895124 0
0.808629 0.756044 0
0.849148 0.75185 0
0.837435 0.794399 0
0.6417 0.843822 0
0.437119 0.895124 0
0.902904 0.595264 0
1 0.52518 0
1 0.640372 0
0.894571 0.656965 0
0.854627 0.658895 0
0.902904 0.595264 0
0.776524 0.753393 0
0.894571 0.656965 0
1 0.640372 0
1 0.664814 0
0.849148 0.75185 0
0.808629 0.756044 0
0.776524 0.753393 0
0 0.102243 0
0.391227 0 0
0.50351 0 0
0.359738 0.0381755 0
0 0.113355 0
0 0.102243 0
0.123539 0.976508 0
0.180195 0.961509 0
0.531319 0.90623 0
0.190566 1 0
0.0383741 1 0
0.123539 0.976508 0
0 0.113355 0
0.359738 0.0381755 0
0.146853 0.118366 0
0.136509 0.122134 0
0 0.161351 0
0 0.113355 0
0.211501 0.953204 0
0.387442 0.907619 0
0.437119 0.895124 0
0.6417 0.843822 0
0.63985 0.874986 0
0.619152 0.884099 0
0.531319 0.90623 0
0.180195 0.961509 0
0.211501 0.953204 0
0.6417 0.843822 0
0.837435 0.794399 0
1 0.75463 0
1 0.778922 0
0.63985 0.874986 0
0.6417 0.843822 0
0.531319 0.90623 0
0.619152 0.884099 0
0.843195 0.852726 0
0.236631 1 0
0.190566 1 0
0.531319 0.90623 0
0.50351 0 0
0.578739 0 0
0.412357 0.0634131 0
0.146853 0.118366 0
0.359738 0.0381755 0
0.50351 0 0
0.619152 0.884099 0
0.63985 0.874986 0
1 0.778922 0
1 0.824139 0
0.843195 0.852726 0
0.619152 0.884099 0
0 0.161351 0
0.136509 0.122134 0
0.139104 0.131702 0
0 0.295007 0
0 0.161351 0
1 0.824602 0
1 0.849932 0
0.973521 0.855982 0
0.333233 1 0
0.315842 1 0
1 0.824602 0
0.843195 0.852726 0
1 0.824139 0
1 0.824602 0
0.315842 1 0
0.236631 1 0
0.843195 0.852726 0
0.136509 0.122134 0
0.146853 0.118366 0
0.412357 0.0634131 0
0.411248 0.0979397 0
0.27707 0.140738 0
0.149208 0.134543 0
0.139104 0.131702 0
0.136509 0.122134 0
0.973521 0.855982 0
0.761551 0.922198 0
0.471682 0.991887 0
0.436006 1 0
0.333233 1 0
0.973521 0.855982 0
0.412357 0.0634131 0
0.578739 0 0
0.632496 0 0
0.517596 0.0909471 0
0.509889 0.0932611 0
0.411248 0.0979397 0
0.412357 0.0634131 0
0.761551 0.922198 0
0.926628 0.937147 0
0.899957 0.949506 0
0.471682 0.991887 0
0.761551 0.922198 0
0.471682 0.991887 0
0.899957 0.949506 0
0.793221 1 0
0.436006 1 0
0.471682 0.991887 0
0.899957 0.949506 0
0.926628 0.937147 0
1 0.904927 0
1 1 0
0.793221 1 0
0.899957 0.949506 0
0.973521 0.855982 0
1 0.849932 0
1 0.904927 0
0.926628 0.937147 0
0.761551 0.922198 0
0.973521 0.855982 0
CELLS 100 729
5 0 1 2 3 4
7 5 6 7 8 9 10 11
7 12 13 14 15 16 17 18
5 19 20 21 22 23
6 24 25 26 27 28 29
5 30 31 32 33 34
6 35 36 37 38 39 40
6 41 42 43 44 45 46
6 47 48 49 50 51 52
5 53 54 55 56 57
7 58 59 60 61 62 63 64
7 65 66 67 68 69 70 71
6 72 73 74 75 76 77
5 78 79 80 81 82
7 83 84 85 86 87 88 89
8 90 91 92 93 94 95 96 97
6 98 99 100 101 102 103
9 104 105 106 107 108 109 110 111 112
6 113 114 115 116 117 118
9 119 120 121 122 123 124 125 126 127
7 128 129 130 131 132 133 134
5 135 136 137 138 139
5 140 141 142 143 144
8 145 146 147 148 149 150 151 152
7 153 154 155 156 157 158 159
5 160 161 162 163 164
5 165 166 167 168 169
7 170 171 172 173 174 175 176
6 177 178 179 180 181 182
5 183 184 185 186 187
8 188 189 190 191 192 193 194 195
7 196 197 198 199 200 201 202
7 203 204 205 206 207 208 209
7 210 211 212 213 214 215 216
8 217 218 219 220 221 222 223 224
7 225 226 227 228 229 230 231
6 232 233 234 235 236 237
6 238 239 240 241 242 243
6 244 245 246 247 248 249
6 250 251 252 253 254 255
8 256 257 258 259 260 261 262 263
7 264 265 266 267 268 269 270
6 271 272 273 274 275 276
7 277 278 279 280 281 282 283
6 284 285 286 287 288 289
6 290 291 292 293 294 295
5 296 297 298 299 300
7 301 302 303 304 305 306 307
5 308 309 310 311 312
7 313 314 315 316 317 318 319
6 320 321 322 323 324 325
6 326 327 328 329 330 331
6 332 333 334 335 336 337
7 338 339 340 341 342 343 344
4 345 346 347 348
6 349 350 351 352 353 354
5 355 356 357 358 359
6 360 361 362 363 364 365
6 366 367 368 369 370 371
7 372 373 374 375 376 377 378
7 379 380 381 382 383 384 385
6 386 387 388 389 390 391
5 392 393 394 395 396
8 397 398 399 400 401 402 403 404
7 405 406 407 408 409 410 411
5 412 413 414 415 416
8 417 418 419 420 421 422 423 424
8 425 426 427 428 429 430 431 432
6 433 434 435 436 437 438
6 439 440 441 442 443 444
7 445 446 447 448 449 450 451
8 452 453 454 455 456 457 458 459
7 460 461 462 463 464 465 466
6 467 468 469 470 471 472
6 473 474 475 476 477 478
4 479 480 481 482
6 483 484 485 486 487 488
5 489 490 491 492 493
5 494 495 496 497 498
6 499 500 501 502 503 504
6 505 506 507 508 509 510
7 511 512 513 514 515 516 517
6 518 519 520 521 522 523
6 524 525 526 527 528 529
6 530 531 532 533 534 535
9 536 537 538 539 540 541 542 543 544
6 545 546 547 548 549 550
6 551 552 553 554 555 556
6 557 558 559 560 561 562
6 563 564 565 566 567 568
5 569 570 571 572 573
6 574 575 576 577 578 579
6 580 581 582 583 584 585
8 586 587 588 589 590 591 592 593
6 594 595 596 597 598 599
7 600 601 602 603 604 605 606
5 607 608 609 610 611
5 612 613 614 615 616
6 617 618 619 620 621 622
6 623 624 625 626 627 628
CELL_TYPES 100
7
7
7
7
7
7
7
7
7
7
7
7
7
7
7
7
7
7
7
7
7
7
7
7
7
7
7
7
7
7
7
7
7
7
7
7
7
7
7
7
7
7
7
7
7
7
7
7
7
7
7
7
7
7
7
7
7
7
7
7
7
7
7
7
7
7
7
7
7
7
7
7
7
7
7
7
7
7
7
7
7
7
7
7
7
7
7
7
7
7
7
7
7
7
7
7
7
7
7
7
CELL_DATA 100
FIELD FieldData 6
weight 1 100 float
 93.6474 207.358 94.5282 208.926 147.146 94.6797 209.4 149.708 94.2667 209.19 150.259 95.0897 211.437 148.397 210.99 95.2118 211.554 145.389 94.6519 209.964 212.02 181.912 96.6075 211.507 170.936 213.709 182.565 210.074 211.687 212.302 206.4 213.629 210.691 212.373 253.824 213.3 214.433 214.729 258.468 216.03 213.346 291.542 259.705 216.181 289.911 282.024 216.804 269.065 285.469 228.973 292.141 295.543 287.963 363.56 331.86 292.667 353.048 334.119 362.465 366.402 333.948 374.763 371.164 333.32 372.442 375.014 369.357 375.58 366.975 377.619 384.72 378.343 385.636 390.738 393.689 9.00607 396.141 398.093 24.9327 397.298 388.874 394.651 32.8921 604.719 67.7518 603.543 603.67 609.675 91.0602 605.937 93.0901 619.267 612.365 92.9859 807.666 93.0587 818.129 819.152 861.867 816.41
num 1 100 float
 69 89 66 35 32 86 61 51 19 14 41 78 30 60 52 29 81 8 77 48 79 2 47 33 23 91 62 80 55 34 90 22 10 20 44 57 40 43 74 21 71 75 65 93 28 11 45 24 31 12 53 64 72 7 25 73 70 42 5 27 83 4 37 63 54 6 16 38 56 15 9 18 26 58 17 0 87 36 3 13 50 46 1 92 39 82 84 95 49 96 67 76 94 68 99 59 98 88 97 85
kind 1 100 float
 0 0 0 0 0 0 0 0 0 0 0 0 0 0 0 0 0 0 0 0 0 0 0 0 0 0 0 0 0 0 0 0 0 0 0 0 0 0 0 0 0 0 0 0 0 0 0 0 0 0 0 0 0 0 0 0 0 0 0 0 0 0 0 0 0 0 0 0 0 0 0 0 0 0 0 0 0 0 0 0 0 0 0 0 0 0 0 0 0 0 0 0 0 0 0 0 0 0 0 0
centroid_x 1 100 float
 0.641912 0.223941 0.0837799 0.16016 0.12115 0.203651 0.0866379 0.386078 0.383434 0.617299 0.789373 0.23223 0.0856636 0.313854 0.727893 0.506224 0.258029 0.605016 0.812738 0.396676 0.291691 0.374963 0.741054 0.43498 0.264596 0.239127 0.105219 0.907281 0.735866 0.61021 0.573903 0.408738 0.9241 0.506598 0.557658 0.15828 0.0943665 0.896116 0.856765 0.740687 0.721049 0.840234 0.437578 0.558183 0.248881 0.69401 0.906131 0.46527 0.195907 0.874427 0.259494 0.872038 0.462593 0.516713 0.129784 0.625566 0.194918 0.400765 0.148173 0.761553 0.777687 0.474971 0.899595 0.342725 0.615593 0.0971108 0.156167 0.200727 0.413349 0.450972 0.379807 0.803017 0.745967 0.439526 0.75534 0.10088 0.60423 0.932237 0.159938 0.705703 0.946212 0.894399 0.260226 0.252066 0.126201 0.477571 0.813586 0.504108 0.385595 0.861402 0.049571 0.742936 0.572088 0.28816 0.616908 0.510383 0.729556 0.699209 0.930611 0.912464
centroid_y 1 100 float
 0.0395667 0.372924 0.235311 0.426472 0.294951 0.17438 0.492358 0.238583 0.136796 0.226939 0.100962 0.22067 0.546925 0.24671 0.205394 0.129245 0.454903 0.13481 0.0259146 0.342418 0.484329 0.277409 0.0745881 0.36953 0.297086 0.573013 0.388095 0.095492 0.241936 0.321313 0.218261 0.489626 0.147066 0.399025 0.480135 0.569135 0.648512 0.226907 0.380816 0.347526 0.306515 0.448149 0.545624 0.446699 0.676491 0.475442 0.276466 0.547843 0.666431 0.333945 0.692563 0.473758 0.580835 0.672844 0.766461 0.554829 0.78956 0.690312 0.836972 0.580097 0.537118 0.764054 0.542624 0.695066 0.681418 0.933315 0.870517 0.910896 0.746123 0.804197 0.862304 0.629113 0.691468 0.860273 0.727095 0.0220283 0.81816 0.737697 0.0461333 0.811291 0.607057 0.697249 0.0470545 0.965131 0.104674 0.898861 0.81468 0.925999 0.049751 0.831977 0.191964 0.899172 0.926332 0.108632 0.945557 0.0526766 0.952305 0.982903 0.967972 0.901294
centroid_z 1 100 float
 0 0 0 0 0 0 0 0 0 0 0 0 0 0 0 0 0 0 0 0 0 0 0 0 0 0 0 0 0 0 0 0 0 0 0 0 0 0 0 0 0 0 0 0 0 0 0 0 0 0 0 0 0 0 0 0 0 0 0 0 0 0 0 0 0 0 0 0 0 0 0 0 0 0 0 0 0 0 0 0 0 0 0 0 0 0 0 0 0 0 0 0 0 0 0 0 0 0 0 0
